 Entering Gaussian System, Link 0=g16
 Input=s1_freq.gjf
 Output=s1_freq.log
 Initial command:
 /home/scicons/gaussian16B/g16_avx/g16/l1.exe "/tmp/tmp.sxCzPDzTTb/Gau-171311.inp" -scrdir="/tmp/tmp.sxCzPDzTTb/"
 Entering Link 1 = /home/scicons/gaussian16B/g16_avx/g16/l1.exe PID=    171313.
  
 Copyright (c) 1988-2017, Gaussian, Inc.  All Rights Reserved.
  
 This is part of the Gaussian(R) 16 program.  It is based on
 the Gaussian(R) 09 system (copyright 2009, Gaussian, Inc.),
 the Gaussian(R) 03 system (copyright 2003, Gaussian, Inc.),
 the Gaussian(R) 98 system (copyright 1998, Gaussian, Inc.),
 the Gaussian(R) 94 system (copyright 1995, Gaussian, Inc.),
 the Gaussian 92(TM) system (copyright 1992, Gaussian, Inc.),
 the Gaussian 90(TM) system (copyright 1990, Gaussian, Inc.),
 the Gaussian 88(TM) system (copyright 1988, Gaussian, Inc.),
 the Gaussian 86(TM) system (copyright 1986, Carnegie Mellon
 University), and the Gaussian 82(TM) system (copyright 1983,
 Carnegie Mellon University). Gaussian is a federally registered
 trademark of Gaussian, Inc.
  
 This software contains proprietary and confidential information,
 including trade secrets, belonging to Gaussian, Inc.
  
 This software is provided under written license and may be
 used, copied, transmitted, or stored only in accord with that
 written license.
  
 The following legend is applicable only to US Government
 contracts under FAR:
  
                    RESTRICTED RIGHTS LEGEND
  
 Use, reproduction and disclosure by the US Government is
 subject to restrictions as set forth in subparagraphs (a)
 and (c) of the Commercial Computer Software - Restricted
 Rights clause in FAR 52.227-19.
  
 Gaussian, Inc.
 340 Quinnipiac St., Bldg. 40, Wallingford CT 06492
  
  
 ---------------------------------------------------------------
 Warning -- This program may not be used in any manner that
 competes with the business of Gaussian, Inc. or will provide
 assistance to any competitor of Gaussian, Inc.  The licensee
 of this program is prohibited from giving any competitor of
 Gaussian, Inc. access to this program.  By using this program,
 the user acknowledges that Gaussian, Inc. is engaged in the
 business of creating and licensing software in the field of
 computational chemistry and represents and warrants to the
 licensee that it is not a competitor of Gaussian, Inc. and that
 it will not use this program in any manner prohibited above.
 ---------------------------------------------------------------
  

 Cite this work as:
 Gaussian 16, Revision B.01,
 M. J. Frisch, G. W. Trucks, H. B. Schlegel, G. E. Scuseria, 
 M. A. Robb, J. R. Cheeseman, G. Scalmani, V. Barone, 
 G. A. Petersson, H. Nakatsuji, X. Li, M. Caricato, A. V. Marenich, 
 J. Bloino, B. G. Janesko, R. Gomperts, B. Mennucci, H. P. Hratchian, 
 J. V. Ortiz, A. F. Izmaylov, J. L. Sonnenberg, D. Williams-Young, 
 F. Ding, F. Lipparini, F. Egidi, J. Goings, B. Peng, A. Petrone, 
 T. Henderson, D. Ranasinghe, V. G. Zakrzewski, J. Gao, N. Rega, 
 G. Zheng, W. Liang, M. Hada, M. Ehara, K. Toyota, R. Fukuda, 
 J. Hasegawa, M. Ishida, T. Nakajima, Y. Honda, O. Kitao, H. Nakai, 
 T. Vreven, K. Throssell, J. A. Montgomery, Jr., J. E. Peralta, 
 F. Ogliaro, M. J. Bearpark, J. J. Heyd, E. N. Brothers, K. N. Kudin, 
 V. N. Staroverov, T. A. Keith, R. Kobayashi, J. Normand, 
 K. Raghavachari, A. P. Rendell, J. C. Burant, S. S. Iyengar, 
 J. Tomasi, M. Cossi, J. M. Millam, M. Klene, C. Adamo, R. Cammi, 
 J. W. Ochterski, R. L. Martin, K. Morokuma, O. Farkas, 
 J. B. Foresman, and D. J. Fox, Gaussian, Inc., Wallingford CT, 2016.
 
 ******************************************
 Gaussian 16:  ES64L-G16RevB.01 20-Dec-2017
                24-Feb-2025 
 ******************************************
 %chk=s1_freq.chk
 %mem=80GB
 %cpu=0-23
 SetSPE:  set environment variable "MP_BIND" = "yes"
 SetSPE:  set environment variable "MP_BLIST" = "0,1,2,3,4,5,6,7,8,9,10,11,12,13,14,15,16,17,18,19,20,21,22,23"
 Will use up to   24 processors via shared memory.
 ----------------------------------------------------------------------
 # freq(savenm) td(nstates=7) b3lyp/6-31g* scrf(smd,solvent=toluene) ge
 om=check guess=read
 ----------------------------------------------------------------------
 1/10=4,29=2,30=1,38=1/1,3;
 2/12=2,40=1/2;
 3/5=1,6=6,7=1,11=9,14=-4,25=1,30=1,70=32201,71=2,72=13,74=-5,116=-2,140=1/1,2,3,8;
 4/5=1/1;
 5/5=2,38=6,53=13,98=1/2;
 8/6=1,10=2,108=7/1;
 9/15=3,41=7,42=1,70=2/14;
 10/5=2004,20=4/2;
 11/6=1,8=1,12=-1,16=1,42=3/1,2,10;
 10/6=3,21=1/2,14;
 6/7=2,8=2,9=2,10=2/1;
 7/8=1,10=1,12=6,13=8,25=1,44=2,92=1/1,2,3,16;
 1/10=4,30=1/3;
 99//99;
 ----
 ****
 ----
 Structure from the checkpoint file:  "s1_freq.chk"
 Charge =  0 Multiplicity = 1
 Redundant internal coordinates found in file.  (old form).
 C,0,1.1761831782,-0.0216334913,-0.0770666344
 C,0,1.2401094387,-1.4416790991,-0.1279175929
 C,0,0.0017730253,-2.0975614341,-0.0739089083
 C,0,-1.2376023243,-1.4491692126,0.0266735175
 C,0,-1.1764843539,-0.0286941219,0.0682315409
 C,0,-0.0009379758,0.7383291863,0.0199341624
 N,0,2.3506629181,0.6787056512,-0.1258351642
 N,0,-2.3523316471,0.6646630256,0.1624960732
 C,0,2.488656584,2.0574680596,-0.0831767329
 C,0,3.8654288084,2.3721924771,-0.1456545067
 C,0,1.405492866,2.9561447941,0.0084516998
 C,0,1.8296228459,4.30942226,0.0379674383
 C,0,3.1890246072,4.695360541,-0.0252489521
 C,0,4.2157562712,3.7280381308,-0.1164507845
 C,0,-3.8693053723,2.3497147838,0.3114322835
 C,0,-2.4929182626,2.0429353342,0.2119738111
 C,0,-4.2224561949,3.7039634349,0.3679805571
 C,0,-3.1987632941,4.6776515374,0.3216142642
 C,0,-1.8390943342,4.2996234639,0.2256348193
 C,0,-1.4123447229,2.9481884836,0.1656937938
 B,0,-0.0026446682,2.3045914628,0.0681894314
 C,0,3.5488587105,6.1371520358,0.0005970924
 C,0,-2.8597599212,7.0717578257,-0.3879476958
 C,0,-3.5628654943,6.1177994384,0.3710097638
 C,0,-3.2030314969,8.422036707,-0.3419777695
 C,0,-4.2580656588,8.8541142845,0.4645525289
 C,0,-4.9666813524,7.9206100813,1.2242039858
 C,0,-4.6234888115,6.5704206519,1.1777040953
 C,0,4.6984957309,6.5859518984,0.6769866944
 C,0,5.0376455278,7.9377395753,0.7008185069
 C,0,4.2356823161,8.876827134,0.0484288556
 C,0,3.0913617758,8.44868621,-0.6279611959
 C,0,2.7523136465,7.0967728932,-0.6513975596
 C,0,3.5885230689,0.0909390325,-0.2165829184
 C,0,4.5845300624,1.0967201681,-0.2380109292
 C,0,-4.5861768154,1.0696575537,0.3153495787
 C,0,-3.5884960041,0.0695347326,0.2233622651
 C,0,3.7925876655,-1.2758252908,-0.2688983965
 C,0,5.1305445228,-1.6725553819,-0.353024844
 C,0,6.1821548832,-0.7239586642,-0.3776535475
 C,0,5.9053410487,0.6634123732,-0.3208462181
 C,0,-5.9046603716,0.6285506723,0.3940192635
 C,0,-6.1776515009,-0.7606443388,0.3783789509
 C,0,-5.1248935481,-1.7032037809,0.2801882049
 C,0,-3.7890131964,-1.2985773297,0.2008388291
 C,0,7.5906932139,-1.189155117,-0.4570639769
 C,0,-7.5824862345,-1.2342125112,0.4725218511
 C,0,-2.5685110706,-2.2345317507,0.0829951579
 F,0,0.0028480345,-3.4436963359,-0.1219846713
 C,0,2.5721624995,-2.2188504213,-0.241485445
 C,0,2.5913247646,-3.1401609002,-1.4794637179
 C,0,2.803200854,-4.4785685887,-1.0992266009
 C,0,2.8930355857,-4.5478232115,0.3650207097
 C,0,2.7350067783,-3.2524520257,0.892265988
 C,0,-2.5823249428,-3.2609255264,1.2348755558
 C,0,-2.7958307412,-4.5609614818,0.7396092684
 C,0,-2.8898151777,-4.501583471,-0.7248270122
 C,0,-2.7354583906,-3.1647528111,-1.1369773535
 C,0,-3.0883445314,-5.5087943562,-1.6713882205
 C,0,-3.1261185006,-5.165332788,-3.0248000643
 C,0,-2.9692726607,-3.8350999508,-3.428694191
 C,0,-2.7739772483,-2.8222453966,-2.4826547585
 C,0,2.4598476617,-2.7888768367,-2.8170069589
 C,0,2.5412111414,-3.7944643522,-3.7871449379
 C,0,2.7543679335,-5.126230761,-3.4153497127
 C,0,2.8875066169,-5.4785056205,-2.0702556719
 C,0,3.0912746667,-5.6337756336,1.220314977
 C,0,3.1248753418,-5.4100687732,2.5988328742
 C,0,2.9645489917,-4.1205399081,3.1172435388
 C,0,2.769845484,-3.0290868288,2.2627975304
 C,0,-2.4476570218,-3.0279839032,2.5976431665
 C,0,-2.5268302985,-4.1144821847,3.4765668459
 C,0,-2.7414285802,-5.4086456545,2.9903160439
 C,0,-2.8782589594,-5.6419810446,1.6198086366
 C,0,-7.9094198952,-2.3964707309,1.1954949535
 C,0,-9.2282172612,-2.8386582395,1.2852553904
 C,0,-10.2537840671,-2.1299700155,0.6557294799
 C,0,-9.946315608,-0.9740290637,-0.0651304799
 C,0,-8.6275602061,-0.5319488578,-0.155953395
 C,0,8.5477329129,-0.477148353,-1.2036960589
 C,0,9.8702180858,-0.9113921012,-1.2762709403
 C,0,10.2694491397,-2.0690406226,-0.6048324189
 C,0,9.3319420779,-2.7873224924,0.1404799147
 C,0,8.0095422161,-2.3529806709,0.2141166152
 H,0,1.0867638181,5.0920860461,0.1482472668
 H,0,5.2516968482,4.0411291889,-0.1962407499
 H,0,-5.2624651425,4.0108147366,0.41021457
 H,0,-1.0939304553,5.0878098436,0.2293063753
 H,0,-2.0540736912,6.7452513202,-1.0392013691
 H,0,-2.6494386435,9.1375201692,-0.9448166762
 H,0,-4.5250050034,9.9069889076,0.500961896
 H,0,-5.7841417008,8.2452847123,1.8630735121
 H,0,-5.1652411442,5.8587589886,1.794374474
 H,0,5.3159626281,5.8696597742,1.2116584389
 H,0,5.9260130452,8.2591534153,1.238692386
 H,0,4.4994803643,9.9309539904,0.0672612427
 H,0,2.4636381385,9.168684271,-1.1469578815
 H,0,1.8740508746,6.7737514477,-1.2028907199
 H,0,5.372914341,-2.727304754,-0.4279176982
 H,0,6.7271569754,1.372654937,-0.3128469048
 H,0,-6.723992133,1.3332699461,0.4966667136
 H,0,-5.368040568,-2.7596394366,0.2391828831
 H,0,-3.2079307263,-6.5444748543,-1.364187664
 H,0,-3.2781686207,-5.9399835503,-3.7716713216
 H,0,-3.0010935919,-3.5841775221,-4.4854043746
 H,0,-2.6574729344,-1.7896307657,-2.8011753723
 H,0,2.298780644,-1.7550451993,-3.1112197064
 H,0,2.4396699175,-3.5366744216,-4.8377865415
 H,0,2.816238533,-5.8951747238,-4.1808029936
 H,0,3.0500488286,-6.5153445643,-1.7876940742
 H,0,3.2133123226,-6.6383759478,0.8238424059
 H,0,3.2759947127,-6.2469069596,3.2755496264
 H,0,2.9928011594,-3.9628406277,4.1919468616
 H,0,2.6509277265,-2.0283363358,2.6699058335
 H,0,-2.2857894943,-2.0236765112,2.9804608024
 H,0,-2.422108957,-3.9493242944,4.5454054902
 H,0,-2.8011717637,-6.2415731257,3.6858349245
 H,0,-3.0416594193,-6.6501395131,1.2480217488
 H,0,-7.1259731143,-2.9419556965,1.7138598327
 H,0,-9.4557980102,-3.7346441553,1.8570832558
 H,0,-11.2818778017,-2.4748894238,0.726173899
 H,0,-10.7344439429,-0.4186812324,-0.5671388798
 H,0,-8.4000507468,0.3532438909,-0.7432788199
 H,0,8.2455488439,0.4095183938,-1.7539647588
 H,0,10.5883870276,-0.348580276,-1.8670742228
 H,0,11.3003919028,-2.4078871337,-0.661812104
 H,0,9.6323243506,-3.6847596784,0.6752201151
 H,0,7.2979598226,-2.9060377325,0.8206047094
 Recover connectivity data from disk.

 GradGradGradGradGradGradGradGradGradGradGradGradGradGradGradGradGradGrad
 Berny optimization.
 Initialization pass.
                           ----------------------------
                           !    Initial Parameters    !
                           ! (Angstroms and Degrees)  !
 --------------------------                            --------------------------
 ! Name  Definition              Value          Derivative Info.                !
 --------------------------------------------------------------------------------
 ! R1    R(1,2)                  1.4224         calculate D2E/DX2 analytically  !
 ! R2    R(1,6)                  1.4045         calculate D2E/DX2 analytically  !
 ! R3    R(1,7)                  1.3683         calculate D2E/DX2 analytically  !
 ! R4    R(2,3)                  1.4023         calculate D2E/DX2 analytically  !
 ! R5    R(2,50)                 1.5464         calculate D2E/DX2 analytically  !
 ! R6    R(3,4)                  1.4023         calculate D2E/DX2 analytically  !
 ! R7    R(3,49)                 1.347          calculate D2E/DX2 analytically  !
 ! R8    R(4,5)                  1.4224         calculate D2E/DX2 analytically  !
 ! R9    R(4,48)                 1.5464         calculate D2E/DX2 analytically  !
 ! R10   R(5,6)                  1.4045         calculate D2E/DX2 analytically  !
 ! R11   R(5,8)                  1.3683         calculate D2E/DX2 analytically  !
 ! R12   R(6,21)                 1.567          calculate D2E/DX2 analytically  !
 ! R13   R(7,9)                  1.3863         calculate D2E/DX2 analytically  !
 ! R14   R(7,34)                 1.3733         calculate D2E/DX2 analytically  !
 ! R15   R(8,16)                 1.3863         calculate D2E/DX2 analytically  !
 ! R16   R(8,37)                 1.3733         calculate D2E/DX2 analytically  !
 ! R17   R(9,10)                 1.4137         calculate D2E/DX2 analytically  !
 ! R18   R(9,11)                 1.4104         calculate D2E/DX2 analytically  !
 ! R19   R(10,14)                1.4007         calculate D2E/DX2 analytically  !
 ! R20   R(10,35)                1.4671         calculate D2E/DX2 analytically  !
 ! R21   R(11,12)                1.4185         calculate D2E/DX2 analytically  !
 ! R22   R(11,21)                1.5527         calculate D2E/DX2 analytically  !
 ! R23   R(12,13)                1.4145         calculate D2E/DX2 analytically  !
 ! R24   R(12,85)                1.0847         calculate D2E/DX2 analytically  !
 ! R25   R(13,14)                1.4136         calculate D2E/DX2 analytically  !
 ! R26   R(13,22)                1.4862         calculate D2E/DX2 analytically  !
 ! R27   R(14,86)                1.0852         calculate D2E/DX2 analytically  !
 ! R28   R(15,16)                1.4137         calculate D2E/DX2 analytically  !
 ! R29   R(15,17)                1.4007         calculate D2E/DX2 analytically  !
 ! R30   R(15,36)                1.4671         calculate D2E/DX2 analytically  !
 ! R31   R(16,20)                1.4104         calculate D2E/DX2 analytically  !
 ! R32   R(17,18)                1.4136         calculate D2E/DX2 analytically  !
 ! R33   R(17,87)                1.0852         calculate D2E/DX2 analytically  !
 ! R34   R(18,19)                1.4145         calculate D2E/DX2 analytically  !
 ! R35   R(18,24)                1.4863         calculate D2E/DX2 analytically  !
 ! R36   R(19,20)                1.4185         calculate D2E/DX2 analytically  !
 ! R37   R(19,88)                1.0847         calculate D2E/DX2 analytically  !
 ! R38   R(20,21)                1.5527         calculate D2E/DX2 analytically  !
 ! R39   R(22,29)                1.4073         calculate D2E/DX2 analytically  !
 ! R40   R(22,33)                1.4073         calculate D2E/DX2 analytically  !
 ! R41   R(23,24)                1.4073         calculate D2E/DX2 analytically  !
 ! R42   R(23,25)                1.394          calculate D2E/DX2 analytically  !
 ! R43   R(23,89)                1.0862         calculate D2E/DX2 analytically  !
 ! R44   R(24,28)                1.4073         calculate D2E/DX2 analytically  !
 ! R45   R(25,26)                1.3965         calculate D2E/DX2 analytically  !
 ! R46   R(25,90)                1.0871         calculate D2E/DX2 analytically  !
 ! R47   R(26,27)                1.3967         calculate D2E/DX2 analytically  !
 ! R48   R(26,91)                1.0868         calculate D2E/DX2 analytically  !
 ! R49   R(27,28)                1.3939         calculate D2E/DX2 analytically  !
 ! R50   R(27,92)                1.0871         calculate D2E/DX2 analytically  !
 ! R51   R(28,93)                1.0864         calculate D2E/DX2 analytically  !
 ! R52   R(29,30)                1.3939         calculate D2E/DX2 analytically  !
 ! R53   R(29,94)                1.0864         calculate D2E/DX2 analytically  !
 ! R54   R(30,31)                1.3967         calculate D2E/DX2 analytically  !
 ! R55   R(30,95)                1.0871         calculate D2E/DX2 analytically  !
 ! R56   R(31,32)                1.3965         calculate D2E/DX2 analytically  !
 ! R57   R(31,96)                1.0868         calculate D2E/DX2 analytically  !
 ! R58   R(32,33)                1.394          calculate D2E/DX2 analytically  !
 ! R59   R(32,97)                1.0871         calculate D2E/DX2 analytically  !
 ! R60   R(33,98)                1.0862         calculate D2E/DX2 analytically  !
 ! R61   R(34,35)                1.4157         calculate D2E/DX2 analytically  !
 ! R62   R(34,38)                1.3829         calculate D2E/DX2 analytically  !
 ! R63   R(35,41)                1.3925         calculate D2E/DX2 analytically  !
 ! R64   R(36,37)                1.4157         calculate D2E/DX2 analytically  !
 ! R65   R(36,42)                1.3925         calculate D2E/DX2 analytically  !
 ! R66   R(37,45)                1.3829         calculate D2E/DX2 analytically  !
 ! R67   R(38,39)                1.3981         calculate D2E/DX2 analytically  !
 ! R68   R(38,50)                1.5426         calculate D2E/DX2 analytically  !
 ! R69   R(39,40)                1.4164         calculate D2E/DX2 analytically  !
 ! R70   R(39,99)                1.0848         calculate D2E/DX2 analytically  !
 ! R71   R(40,41)                1.4159         calculate D2E/DX2 analytically  !
 ! R72   R(40,46)                1.4855         calculate D2E/DX2 analytically  !
 ! R73   R(41,100)               1.0856         calculate D2E/DX2 analytically  !
 ! R74   R(42,43)                1.4159         calculate D2E/DX2 analytically  !
 ! R75   R(42,101)               1.0856         calculate D2E/DX2 analytically  !
 ! R76   R(43,44)                1.4165         calculate D2E/DX2 analytically  !
 ! R77   R(43,47)                1.4855         calculate D2E/DX2 analytically  !
 ! R78   R(44,45)                1.3981         calculate D2E/DX2 analytically  !
 ! R79   R(44,102)               1.0848         calculate D2E/DX2 analytically  !
 ! R80   R(45,48)                1.5426         calculate D2E/DX2 analytically  !
 ! R81   R(46,80)                1.4072         calculate D2E/DX2 analytically  !
 ! R82   R(46,84)                1.4073         calculate D2E/DX2 analytically  !
 ! R83   R(47,75)                1.4073         calculate D2E/DX2 analytically  !
 ! R84   R(47,79)                1.4072         calculate D2E/DX2 analytically  !
 ! R85   R(48,55)                1.5429         calculate D2E/DX2 analytically  !
 ! R86   R(48,58)                1.5432         calculate D2E/DX2 analytically  !
 ! R87   R(50,51)                1.5433         calculate D2E/DX2 analytically  !
 ! R88   R(50,54)                1.5428         calculate D2E/DX2 analytically  !
 ! R89   R(51,52)                1.4074         calculate D2E/DX2 analytically  !
 ! R90   R(51,63)                1.3891         calculate D2E/DX2 analytically  !
 ! R91   R(52,53)                1.4686         calculate D2E/DX2 analytically  !
 ! R92   R(52,66)                1.3964         calculate D2E/DX2 analytically  !
 ! R93   R(53,54)                1.4075         calculate D2E/DX2 analytically  !
 ! R94   R(53,67)                1.3965         calculate D2E/DX2 analytically  !
 ! R95   R(54,70)                1.3891         calculate D2E/DX2 analytically  !
 ! R96   R(55,56)                1.4075         calculate D2E/DX2 analytically  !
 ! R97   R(55,71)                1.3891         calculate D2E/DX2 analytically  !
 ! R98   R(56,57)                1.4686         calculate D2E/DX2 analytically  !
 ! R99   R(56,74)                1.3965         calculate D2E/DX2 analytically  !
 ! R100  R(57,58)                1.4074         calculate D2E/DX2 analytically  !
 ! R101  R(57,59)                1.3964         calculate D2E/DX2 analytically  !
 ! R102  R(58,62)                1.3891         calculate D2E/DX2 analytically  !
 ! R103  R(59,60)                1.3968         calculate D2E/DX2 analytically  !
 ! R104  R(59,103)               1.0869         calculate D2E/DX2 analytically  !
 ! R105  R(60,61)                1.399          calculate D2E/DX2 analytically  !
 ! R106  R(60,104)               1.0867         calculate D2E/DX2 analytically  !
 ! R107  R(61,62)                1.3996         calculate D2E/DX2 analytically  !
 ! R108  R(61,105)               1.0866         calculate D2E/DX2 analytically  !
 ! R109  R(62,106)               1.0869         calculate D2E/DX2 analytically  !
 ! R110  R(63,64)                1.3996         calculate D2E/DX2 analytically  !
 ! R111  R(63,107)               1.0869         calculate D2E/DX2 analytically  !
 ! R112  R(64,65)                1.399          calculate D2E/DX2 analytically  !
 ! R113  R(64,108)               1.0866         calculate D2E/DX2 analytically  !
 ! R114  R(65,66)                1.3968         calculate D2E/DX2 analytically  !
 ! R115  R(65,109)               1.0867         calculate D2E/DX2 analytically  !
 ! R116  R(66,110)               1.0869         calculate D2E/DX2 analytically  !
 ! R117  R(67,68)                1.397          calculate D2E/DX2 analytically  !
 ! R118  R(67,111)               1.0869         calculate D2E/DX2 analytically  !
 ! R119  R(68,69)                1.399          calculate D2E/DX2 analytically  !
 ! R120  R(68,112)               1.0868         calculate D2E/DX2 analytically  !
 ! R121  R(69,70)                1.3997         calculate D2E/DX2 analytically  !
 ! R122  R(69,113)               1.0866         calculate D2E/DX2 analytically  !
 ! R123  R(70,114)               1.0869         calculate D2E/DX2 analytically  !
 ! R124  R(71,72)                1.3997         calculate D2E/DX2 analytically  !
 ! R125  R(71,115)               1.0869         calculate D2E/DX2 analytically  !
 ! R126  R(72,73)                1.3991         calculate D2E/DX2 analytically  !
 ! R127  R(72,116)               1.0866         calculate D2E/DX2 analytically  !
 ! R128  R(73,74)                1.3969         calculate D2E/DX2 analytically  !
 ! R129  R(73,117)               1.0868         calculate D2E/DX2 analytically  !
 ! R130  R(74,118)               1.0869         calculate D2E/DX2 analytically  !
 ! R131  R(75,76)                1.3938         calculate D2E/DX2 analytically  !
 ! R132  R(75,119)               1.0863         calculate D2E/DX2 analytically  !
 ! R133  R(76,77)                1.3965         calculate D2E/DX2 analytically  !
 ! R134  R(76,120)               1.087          calculate D2E/DX2 analytically  !
 ! R135  R(77,78)                1.3966         calculate D2E/DX2 analytically  !
 ! R136  R(77,121)               1.0867         calculate D2E/DX2 analytically  !
 ! R137  R(78,79)                1.3938         calculate D2E/DX2 analytically  !
 ! R138  R(78,122)               1.087          calculate D2E/DX2 analytically  !
 ! R139  R(79,123)               1.0864         calculate D2E/DX2 analytically  !
 ! R140  R(80,81)                1.3938         calculate D2E/DX2 analytically  !
 ! R141  R(80,124)               1.0864         calculate D2E/DX2 analytically  !
 ! R142  R(81,82)                1.3966         calculate D2E/DX2 analytically  !
 ! R143  R(81,125)               1.087          calculate D2E/DX2 analytically  !
 ! R144  R(82,83)                1.3965         calculate D2E/DX2 analytically  !
 ! R145  R(82,126)               1.0867         calculate D2E/DX2 analytically  !
 ! R146  R(83,84)                1.3938         calculate D2E/DX2 analytically  !
 ! R147  R(83,127)               1.087          calculate D2E/DX2 analytically  !
 ! R148  R(84,128)               1.0863         calculate D2E/DX2 analytically  !
 ! A1    A(2,1,6)              125.4746         calculate D2E/DX2 analytically  !
 ! A2    A(2,1,7)              118.108          calculate D2E/DX2 analytically  !
 ! A3    A(6,1,7)              116.4174         calculate D2E/DX2 analytically  !
 ! A4    A(1,2,3)              115.2056         calculate D2E/DX2 analytically  !
 ! A5    A(1,2,50)             122.8941         calculate D2E/DX2 analytically  !
 ! A6    A(3,2,50)             121.8996         calculate D2E/DX2 analytically  !
 ! A7    A(2,3,4)              124.5369         calculate D2E/DX2 analytically  !
 ! A8    A(2,3,49)             117.7313         calculate D2E/DX2 analytically  !
 ! A9    A(4,3,49)             117.7317         calculate D2E/DX2 analytically  !
 ! A10   A(3,4,5)              115.205          calculate D2E/DX2 analytically  !
 ! A11   A(3,4,48)             121.8996         calculate D2E/DX2 analytically  !
 ! A12   A(5,4,48)             122.8951         calculate D2E/DX2 analytically  !
 ! A13   A(4,5,6)              125.475          calculate D2E/DX2 analytically  !
 ! A14   A(4,5,8)              118.1078         calculate D2E/DX2 analytically  !
 ! A15   A(6,5,8)              116.4172         calculate D2E/DX2 analytically  !
 ! A16   A(1,6,5)              114.1025         calculate D2E/DX2 analytically  !
 ! A17   A(1,6,21)             122.9483         calculate D2E/DX2 analytically  !
 ! A18   A(5,6,21)             122.9492         calculate D2E/DX2 analytically  !
 ! A19   A(1,7,9)              126.3978         calculate D2E/DX2 analytically  !
 ! A20   A(1,7,34)             123.8472         calculate D2E/DX2 analytically  !
 ! A21   A(9,7,34)             109.7534         calculate D2E/DX2 analytically  !
 ! A22   A(5,8,16)             126.3985         calculate D2E/DX2 analytically  !
 ! A23   A(5,8,37)             123.8479         calculate D2E/DX2 analytically  !
 ! A24   A(16,8,37)            109.7536         calculate D2E/DX2 analytically  !
 ! A25   A(7,9,10)             108.4816         calculate D2E/DX2 analytically  !
 ! A26   A(7,9,11)             124.0046         calculate D2E/DX2 analytically  !
 ! A27   A(10,9,11)            127.5137         calculate D2E/DX2 analytically  !
 ! A28   A(9,10,14)            117.2689         calculate D2E/DX2 analytically  !
 ! A29   A(9,10,35)            106.6536         calculate D2E/DX2 analytically  !
 ! A30   A(14,10,35)           136.0761         calculate D2E/DX2 analytically  !
 ! A31   A(9,11,12)            112.3093         calculate D2E/DX2 analytically  !
 ! A32   A(9,11,21)            115.5688         calculate D2E/DX2 analytically  !
 ! A33   A(12,11,21)           132.1201         calculate D2E/DX2 analytically  !
 ! A34   A(11,12,13)           123.1416         calculate D2E/DX2 analytically  !
 ! A35   A(11,12,85)           119.0598         calculate D2E/DX2 analytically  !
 ! A36   A(13,12,85)           117.7645         calculate D2E/DX2 analytically  !
 ! A37   A(12,13,14)           120.9441         calculate D2E/DX2 analytically  !
 ! A38   A(12,13,22)           119.7735         calculate D2E/DX2 analytically  !
 ! A39   A(14,13,22)           119.2821         calculate D2E/DX2 analytically  !
 ! A40   A(10,14,13)           118.8216         calculate D2E/DX2 analytically  !
 ! A41   A(10,14,86)           121.0993         calculate D2E/DX2 analytically  !
 ! A42   A(13,14,86)           120.0462         calculate D2E/DX2 analytically  !
 ! A43   A(16,15,17)           117.2669         calculate D2E/DX2 analytically  !
 ! A44   A(16,15,36)           106.6537         calculate D2E/DX2 analytically  !
 ! A45   A(17,15,36)           136.0765         calculate D2E/DX2 analytically  !
 ! A46   A(8,16,15)            108.4816         calculate D2E/DX2 analytically  !
 ! A47   A(8,16,20)            124.0039         calculate D2E/DX2 analytically  !
 ! A48   A(15,16,20)           127.5144         calculate D2E/DX2 analytically  !
 ! A49   A(15,17,18)           118.8207         calculate D2E/DX2 analytically  !
 ! A50   A(15,17,87)           121.105          calculate D2E/DX2 analytically  !
 ! A51   A(18,17,87)           120.0372         calculate D2E/DX2 analytically  !
 ! A52   A(17,18,19)           120.9478         calculate D2E/DX2 analytically  !
 ! A53   A(17,18,24)           119.2707         calculate D2E/DX2 analytically  !
 ! A54   A(19,18,24)           119.7812         calculate D2E/DX2 analytically  !
 ! A55   A(18,19,20)           123.1392         calculate D2E/DX2 analytically  !
 ! A56   A(18,19,88)           117.7705         calculate D2E/DX2 analytically  !
 ! A57   A(20,19,88)           119.0631         calculate D2E/DX2 analytically  !
 ! A58   A(16,20,19)           112.3101         calculate D2E/DX2 analytically  !
 ! A59   A(16,20,21)           115.5685         calculate D2E/DX2 analytically  !
 ! A60   A(19,20,21)           132.1205         calculate D2E/DX2 analytically  !
 ! A61   A(6,21,11)            114.661          calculate D2E/DX2 analytically  !
 ! A62   A(6,21,20)            114.6591         calculate D2E/DX2 analytically  !
 ! A63   A(11,21,20)           130.6798         calculate D2E/DX2 analytically  !
 ! A64   A(13,22,29)           121.0308         calculate D2E/DX2 analytically  !
 ! A65   A(13,22,33)           121.0915         calculate D2E/DX2 analytically  !
 ! A66   A(29,22,33)           117.8777         calculate D2E/DX2 analytically  !
 ! A67   A(24,23,25)           121.0513         calculate D2E/DX2 analytically  !
 ! A68   A(24,23,89)           119.3521         calculate D2E/DX2 analytically  !
 ! A69   A(25,23,89)           119.5769         calculate D2E/DX2 analytically  !
 ! A70   A(18,24,23)           121.099          calculate D2E/DX2 analytically  !
 ! A71   A(18,24,28)           121.0183         calculate D2E/DX2 analytically  !
 ! A72   A(23,24,28)           117.8827         calculate D2E/DX2 analytically  !
 ! A73   A(23,25,26)           120.3164         calculate D2E/DX2 analytically  !
 ! A74   A(23,25,90)           119.5927         calculate D2E/DX2 analytically  !
 ! A75   A(26,25,90)           120.0889         calculate D2E/DX2 analytically  !
 ! A76   A(25,26,27)           119.3819         calculate D2E/DX2 analytically  !
 ! A77   A(25,26,91)           120.3078         calculate D2E/DX2 analytically  !
 ! A78   A(27,26,91)           120.3103         calculate D2E/DX2 analytically  !
 ! A79   A(26,27,28)           120.2892         calculate D2E/DX2 analytically  !
 ! A80   A(26,27,92)           120.102          calculate D2E/DX2 analytically  !
 ! A81   A(28,27,92)           119.6063         calculate D2E/DX2 analytically  !
 ! A82   A(24,28,27)           121.0786         calculate D2E/DX2 analytically  !
 ! A83   A(24,28,93)           119.3745         calculate D2E/DX2 analytically  !
 ! A84   A(27,28,93)           119.5258         calculate D2E/DX2 analytically  !
 ! A85   A(22,29,30)           121.0808         calculate D2E/DX2 analytically  !
 ! A86   A(22,29,94)           119.3784         calculate D2E/DX2 analytically  !
 ! A87   A(30,29,94)           119.5195         calculate D2E/DX2 analytically  !
 ! A88   A(29,30,31)           120.2901         calculate D2E/DX2 analytically  !
 ! A89   A(29,30,95)           119.605          calculate D2E/DX2 analytically  !
 ! A90   A(31,30,95)           120.1023         calculate D2E/DX2 analytically  !
 ! A91   A(30,31,32)           119.3805         calculate D2E/DX2 analytically  !
 ! A92   A(30,31,96)           120.3115         calculate D2E/DX2 analytically  !
 ! A93   A(32,31,96)           120.308          calculate D2E/DX2 analytically  !
 ! A94   A(31,32,33)           120.3159         calculate D2E/DX2 analytically  !
 ! A95   A(31,32,97)           120.088          calculate D2E/DX2 analytically  !
 ! A96   A(33,32,97)           119.5942         calculate D2E/DX2 analytically  !
 ! A97   A(22,33,32)           121.055          calculate D2E/DX2 analytically  !
 ! A98   A(22,33,98)           119.3473         calculate D2E/DX2 analytically  !
 ! A99   A(32,33,98)           119.5782         calculate D2E/DX2 analytically  !
 ! A100  A(7,34,35)            109.3352         calculate D2E/DX2 analytically  !
 ! A101  A(7,34,38)            123.9523         calculate D2E/DX2 analytically  !
 ! A102  A(35,34,38)           126.7114         calculate D2E/DX2 analytically  !
 ! A103  A(10,35,34)           105.7749         calculate D2E/DX2 analytically  !
 ! A104  A(10,35,41)           137.6596         calculate D2E/DX2 analytically  !
 ! A105  A(34,35,41)           116.5612         calculate D2E/DX2 analytically  !
 ! A106  A(15,36,37)           105.7752         calculate D2E/DX2 analytically  !
 ! A107  A(15,36,42)           137.6601         calculate D2E/DX2 analytically  !
 ! A108  A(37,36,42)           116.5613         calculate D2E/DX2 analytically  !
 ! A109  A(8,37,36)            109.3353         calculate D2E/DX2 analytically  !
 ! A110  A(8,37,45)            123.9528         calculate D2E/DX2 analytically  !
 ! A111  A(36,37,45)           126.7115         calculate D2E/DX2 analytically  !
 ! A112  A(34,38,39)           115.0843         calculate D2E/DX2 analytically  !
 ! A113  A(34,38,50)           119.1294         calculate D2E/DX2 analytically  !
 ! A114  A(39,38,50)           125.7847         calculate D2E/DX2 analytically  !
 ! A115  A(38,39,40)           121.4336         calculate D2E/DX2 analytically  !
 ! A116  A(38,39,99)           119.5951         calculate D2E/DX2 analytically  !
 ! A117  A(40,39,99)           118.951          calculate D2E/DX2 analytically  !
 ! A118  A(39,40,41)           120.689          calculate D2E/DX2 analytically  !
 ! A119  A(39,40,46)           119.6811         calculate D2E/DX2 analytically  !
 ! A120  A(41,40,46)           119.6292         calculate D2E/DX2 analytically  !
 ! A121  A(35,41,40)           119.5202         calculate D2E/DX2 analytically  !
 ! A122  A(35,41,100)          120.9512         calculate D2E/DX2 analytically  !
 ! A123  A(40,41,100)          119.5036         calculate D2E/DX2 analytically  !
 ! A124  A(36,42,43)           119.5205         calculate D2E/DX2 analytically  !
 ! A125  A(36,42,101)          120.9518         calculate D2E/DX2 analytically  !
 ! A126  A(43,42,101)          119.5029         calculate D2E/DX2 analytically  !
 ! A127  A(42,43,44)           120.6884         calculate D2E/DX2 analytically  !
 ! A128  A(42,43,47)           119.6325         calculate D2E/DX2 analytically  !
 ! A129  A(44,43,47)           119.6785         calculate D2E/DX2 analytically  !
 ! A130  A(43,44,45)           121.4341         calculate D2E/DX2 analytically  !
 ! A131  A(43,44,102)          118.9504         calculate D2E/DX2 analytically  !
 ! A132  A(45,44,102)          119.5947         calculate D2E/DX2 analytically  !
 ! A133  A(37,45,44)           115.0838         calculate D2E/DX2 analytically  !
 ! A134  A(37,45,48)           119.129          calculate D2E/DX2 analytically  !
 ! A135  A(44,45,48)           125.7854         calculate D2E/DX2 analytically  !
 ! A136  A(40,46,80)           120.9818         calculate D2E/DX2 analytically  !
 ! A137  A(40,46,84)           121.0445         calculate D2E/DX2 analytically  !
 ! A138  A(80,46,84)           117.9736         calculate D2E/DX2 analytically  !
 ! A139  A(43,47,75)           121.0343         calculate D2E/DX2 analytically  !
 ! A140  A(43,47,79)           120.9923         calculate D2E/DX2 analytically  !
 ! A141  A(75,47,79)           117.9732         calculate D2E/DX2 analytically  !
 ! A142  A(4,48,45)            112.0613         calculate D2E/DX2 analytically  !
 ! A143  A(4,48,55)            111.8856         calculate D2E/DX2 analytically  !
 ! A144  A(4,48,58)            111.7434         calculate D2E/DX2 analytically  !
 ! A145  A(45,48,55)           109.8475         calculate D2E/DX2 analytically  !
 ! A146  A(45,48,58)           109.9095         calculate D2E/DX2 analytically  !
 ! A147  A(55,48,58)           100.8496         calculate D2E/DX2 analytically  !
 ! A148  A(2,50,38)            112.0601         calculate D2E/DX2 analytically  !
 ! A149  A(2,50,51)            111.6931         calculate D2E/DX2 analytically  !
 ! A150  A(2,50,54)            111.9412         calculate D2E/DX2 analytically  !
 ! A151  A(38,50,51)           109.9302         calculate D2E/DX2 analytically  !
 ! A152  A(38,50,54)           109.8231         calculate D2E/DX2 analytically  !
 ! A153  A(51,50,54)           100.8494         calculate D2E/DX2 analytically  !
 ! A154  A(50,51,52)           110.6621         calculate D2E/DX2 analytically  !
 ! A155  A(50,51,63)           128.3331         calculate D2E/DX2 analytically  !
 ! A156  A(52,51,63)           120.9882         calculate D2E/DX2 analytically  !
 ! A157  A(51,52,53)           108.8695         calculate D2E/DX2 analytically  !
 ! A158  A(51,52,66)           120.1457         calculate D2E/DX2 analytically  !
 ! A159  A(53,52,66)           130.9843         calculate D2E/DX2 analytically  !
 ! A160  A(52,53,54)           108.8578         calculate D2E/DX2 analytically  !
 ! A161  A(52,53,67)           130.9951         calculate D2E/DX2 analytically  !
 ! A162  A(54,53,67)           120.1466         calculate D2E/DX2 analytically  !
 ! A163  A(50,54,53)           110.6808         calculate D2E/DX2 analytically  !
 ! A164  A(50,54,70)           128.3149         calculate D2E/DX2 analytically  !
 ! A165  A(53,54,70)           120.9837         calculate D2E/DX2 analytically  !
 ! A166  A(48,55,56)           110.6779         calculate D2E/DX2 analytically  !
 ! A167  A(48,55,71)           128.3167         calculate D2E/DX2 analytically  !
 ! A168  A(56,55,71)           120.9855         calculate D2E/DX2 analytically  !
 ! A169  A(55,56,57)           108.8589         calculate D2E/DX2 analytically  !
 ! A170  A(55,56,74)           120.1442         calculate D2E/DX2 analytically  !
 ! A171  A(57,56,74)           130.9964         calculate D2E/DX2 analytically  !
 ! A172  A(56,57,58)           108.8679         calculate D2E/DX2 analytically  !
 ! A173  A(56,57,59)           130.985          calculate D2E/DX2 analytically  !
 ! A174  A(58,57,59)           120.1466         calculate D2E/DX2 analytically  !
 ! A175  A(48,58,57)           110.6656         calculate D2E/DX2 analytically  !
 ! A176  A(48,58,62)           128.3303         calculate D2E/DX2 analytically  !
 ! A177  A(57,58,62)           120.987          calculate D2E/DX2 analytically  !
 ! A178  A(57,59,60)           118.9003         calculate D2E/DX2 analytically  !
 ! A179  A(57,59,103)          120.7553         calculate D2E/DX2 analytically  !
 ! A180  A(60,59,103)          120.3439         calculate D2E/DX2 analytically  !
 ! A181  A(59,60,61)           120.6966         calculate D2E/DX2 analytically  !
 ! A182  A(59,60,104)          119.6306         calculate D2E/DX2 analytically  !
 ! A183  A(61,60,104)          119.6728         calculate D2E/DX2 analytically  !
 ! A184  A(60,61,62)           120.5693         calculate D2E/DX2 analytically  !
 ! A185  A(60,61,105)          119.8059         calculate D2E/DX2 analytically  !
 ! A186  A(62,61,105)          119.6247         calculate D2E/DX2 analytically  !
 ! A187  A(58,62,61)           118.6998         calculate D2E/DX2 analytically  !
 ! A188  A(58,62,106)          121.0091         calculate D2E/DX2 analytically  !
 ! A189  A(61,62,106)          120.291          calculate D2E/DX2 analytically  !
 ! A190  A(51,63,64)           118.6987         calculate D2E/DX2 analytically  !
 ! A191  A(51,63,107)          121.011          calculate D2E/DX2 analytically  !
 ! A192  A(64,63,107)          120.2903         calculate D2E/DX2 analytically  !
 ! A193  A(63,64,65)           120.569          calculate D2E/DX2 analytically  !
 ! A194  A(63,64,108)          119.6256         calculate D2E/DX2 analytically  !
 ! A195  A(65,64,108)          119.8053         calculate D2E/DX2 analytically  !
 ! A196  A(64,65,66)           120.6977         calculate D2E/DX2 analytically  !
 ! A197  A(64,65,109)          119.6723         calculate D2E/DX2 analytically  !
 ! A198  A(66,65,109)          119.63           calculate D2E/DX2 analytically  !
 ! A199  A(52,66,65)           118.9004         calculate D2E/DX2 analytically  !
 ! A200  A(52,66,110)          120.7551         calculate D2E/DX2 analytically  !
 ! A201  A(65,66,110)          120.3441         calculate D2E/DX2 analytically  !
 ! A202  A(53,67,68)           118.8992         calculate D2E/DX2 analytically  !
 ! A203  A(53,67,111)          120.7502         calculate D2E/DX2 analytically  !
 ! A204  A(68,67,111)          120.35           calculate D2E/DX2 analytically  !
 ! A205  A(67,68,69)           120.6972         calculate D2E/DX2 analytically  !
 ! A206  A(67,68,112)          119.6367         calculate D2E/DX2 analytically  !
 ! A207  A(69,68,112)          119.666          calculate D2E/DX2 analytically  !
 ! A208  A(68,69,70)           120.5615         calculate D2E/DX2 analytically  !
 ! A209  A(68,69,113)          119.8207         calculate D2E/DX2 analytically  !
 ! A210  A(70,69,113)          119.6177         calculate D2E/DX2 analytically  !
 ! A211  A(54,70,69)           118.7113         calculate D2E/DX2 analytically  !
 ! A212  A(54,70,114)          120.989          calculate D2E/DX2 analytically  !
 ! A213  A(69,70,114)          120.2996         calculate D2E/DX2 analytically  !
 ! A214  A(55,71,72)           118.7101         calculate D2E/DX2 analytically  !
 ! A215  A(55,71,115)          120.9923         calculate D2E/DX2 analytically  !
 ! A216  A(72,71,115)          120.2975         calculate D2E/DX2 analytically  !
 ! A217  A(71,72,73)           120.5613         calculate D2E/DX2 analytically  !
 ! A218  A(71,72,116)          119.6193         calculate D2E/DX2 analytically  !
 ! A219  A(73,72,116)          119.8193         calculate D2E/DX2 analytically  !
 ! A220  A(72,73,74)           120.698          calculate D2E/DX2 analytically  !
 ! A221  A(72,73,117)          119.6672         calculate D2E/DX2 analytically  !
 ! A222  A(74,73,117)          119.6348         calculate D2E/DX2 analytically  !
 ! A223  A(56,74,73)           118.9004         calculate D2E/DX2 analytically  !
 ! A224  A(56,74,118)          120.7508         calculate D2E/DX2 analytically  !
 ! A225  A(73,74,118)          120.3482         calculate D2E/DX2 analytically  !
 ! A226  A(47,75,76)           120.9908         calculate D2E/DX2 analytically  !
 ! A227  A(47,75,119)          119.4933         calculate D2E/DX2 analytically  !
 ! A228  A(76,75,119)          119.4946         calculate D2E/DX2 analytically  !
 ! A229  A(75,76,77)           120.3183         calculate D2E/DX2 analytically  !
 ! A230  A(75,76,120)          119.5685         calculate D2E/DX2 analytically  !
 ! A231  A(77,76,120)          120.1105         calculate D2E/DX2 analytically  !
 ! A232  A(76,77,78)           119.408          calculate D2E/DX2 analytically  !
 ! A233  A(76,77,121)          120.2962         calculate D2E/DX2 analytically  !
 ! A234  A(78,77,121)          120.2958         calculate D2E/DX2 analytically  !
 ! A235  A(77,78,79)           120.2952         calculate D2E/DX2 analytically  !
 ! A236  A(77,78,122)          120.1078         calculate D2E/DX2 analytically  !
 ! A237  A(79,78,122)          119.5944         calculate D2E/DX2 analytically  !
 ! A238  A(47,79,78)           121.0145         calculate D2E/DX2 analytically  !
 ! A239  A(47,79,123)          119.5068         calculate D2E/DX2 analytically  !
 ! A240  A(78,79,123)          119.4579         calculate D2E/DX2 analytically  !
 ! A241  A(46,80,81)           121.0149         calculate D2E/DX2 analytically  !
 ! A242  A(46,80,124)          119.5051         calculate D2E/DX2 analytically  !
 ! A243  A(81,80,124)          119.459          calculate D2E/DX2 analytically  !
 ! A244  A(80,81,82)           120.2947         calculate D2E/DX2 analytically  !
 ! A245  A(80,81,125)          119.5944         calculate D2E/DX2 analytically  !
 ! A246  A(82,81,125)          120.1082         calculate D2E/DX2 analytically  !
 ! A247  A(81,82,83)           119.4078         calculate D2E/DX2 analytically  !
 ! A248  A(81,82,126)          120.2959         calculate D2E/DX2 analytically  !
 ! A249  A(83,82,126)          120.2963         calculate D2E/DX2 analytically  !
 ! A250  A(82,83,84)           120.3191         calculate D2E/DX2 analytically  !
 ! A251  A(82,83,127)          120.1102         calculate D2E/DX2 analytically  !
 ! A252  A(84,83,127)          119.568          calculate D2E/DX2 analytically  !
 ! A253  A(46,84,83)           120.9898         calculate D2E/DX2 analytically  !
 ! A254  A(46,84,128)          119.4958         calculate D2E/DX2 analytically  !
 ! A255  A(83,84,128)          119.4931         calculate D2E/DX2 analytically  !
 ! D1    D(6,1,2,3)             -0.0035         calculate D2E/DX2 analytically  !
 ! D2    D(6,1,2,50)           179.7122         calculate D2E/DX2 analytically  !
 ! D3    D(7,1,2,3)           -179.9937         calculate D2E/DX2 analytically  !
 ! D4    D(7,1,2,50)            -0.278          calculate D2E/DX2 analytically  !
 ! D5    D(2,1,6,5)              0.0836         calculate D2E/DX2 analytically  !
 ! D6    D(2,1,6,21)          -179.8422         calculate D2E/DX2 analytically  !
 ! D7    D(7,1,6,5)           -179.926          calculate D2E/DX2 analytically  !
 ! D8    D(7,1,6,21)             0.1481         calculate D2E/DX2 analytically  !
 ! D9    D(2,1,7,9)           -179.7164         calculate D2E/DX2 analytically  !
 ! D10   D(2,1,7,34)            -0.2244         calculate D2E/DX2 analytically  !
 ! D11   D(6,1,7,9)              0.2925         calculate D2E/DX2 analytically  !
 ! D12   D(6,1,7,34)           179.7846         calculate D2E/DX2 analytically  !
 ! D13   D(1,2,3,4)             -0.1679         calculate D2E/DX2 analytically  !
 ! D14   D(1,2,3,49)           179.8317         calculate D2E/DX2 analytically  !
 ! D15   D(50,2,3,4)          -179.8868         calculate D2E/DX2 analytically  !
 ! D16   D(50,2,3,49)            0.1129         calculate D2E/DX2 analytically  !
 ! D17   D(1,2,50,38)            0.8912         calculate D2E/DX2 analytically  !
 ! D18   D(1,2,50,51)         -122.9606         calculate D2E/DX2 analytically  !
 ! D19   D(1,2,50,54)          124.7897         calculate D2E/DX2 analytically  !
 ! D20   D(3,2,50,38)         -179.4118         calculate D2E/DX2 analytically  !
 ! D21   D(3,2,50,51)           56.7365         calculate D2E/DX2 analytically  !
 ! D22   D(3,2,50,54)          -55.5132         calculate D2E/DX2 analytically  !
 ! D23   D(2,3,4,5)              0.2342         calculate D2E/DX2 analytically  !
 ! D24   D(2,3,4,48)          -179.9502         calculate D2E/DX2 analytically  !
 ! D25   D(49,3,4,5)          -179.7654         calculate D2E/DX2 analytically  !
 ! D26   D(49,3,4,48)            0.0501         calculate D2E/DX2 analytically  !
 ! D27   D(3,4,5,6)             -0.142          calculate D2E/DX2 analytically  !
 ! D28   D(3,4,5,8)            179.8264         calculate D2E/DX2 analytically  !
 ! D29   D(48,4,5,6)          -179.9556         calculate D2E/DX2 analytically  !
 ! D30   D(48,4,5,8)             0.0128         calculate D2E/DX2 analytically  !
 ! D31   D(3,4,48,45)          179.6636         calculate D2E/DX2 analytically  !
 ! D32   D(3,4,48,55)           55.7741         calculate D2E/DX2 analytically  !
 ! D33   D(3,4,48,58)          -56.473          calculate D2E/DX2 analytically  !
 ! D34   D(5,4,48,45)           -0.5351         calculate D2E/DX2 analytically  !
 ! D35   D(5,4,48,55)         -124.4246         calculate D2E/DX2 analytically  !
 ! D36   D(5,4,48,58)          123.3283         calculate D2E/DX2 analytically  !
 ! D37   D(4,5,6,1)             -0.0061         calculate D2E/DX2 analytically  !
 ! D38   D(4,5,6,21)           179.9198         calculate D2E/DX2 analytically  !
 ! D39   D(8,5,6,1)           -179.9749         calculate D2E/DX2 analytically  !
 ! D40   D(8,5,6,21)            -0.0491         calculate D2E/DX2 analytically  !
 ! D41   D(4,5,8,16)          -179.8407         calculate D2E/DX2 analytically  !
 ! D42   D(4,5,8,37)             0.2004         calculate D2E/DX2 analytically  !
 ! D43   D(6,5,8,16)             0.1306         calculate D2E/DX2 analytically  !
 ! D44   D(6,5,8,37)          -179.8283         calculate D2E/DX2 analytically  !
 ! D45   D(1,6,21,11)           -0.3372         calculate D2E/DX2 analytically  !
 ! D46   D(1,6,21,20)          179.576          calculate D2E/DX2 analytically  !
 ! D47   D(5,6,21,11)          179.7435         calculate D2E/DX2 analytically  !
 ! D48   D(5,6,21,20)           -0.3434         calculate D2E/DX2 analytically  !
 ! D49   D(1,7,9,10)           179.421          calculate D2E/DX2 analytically  !
 ! D50   D(1,7,9,11)            -0.5374         calculate D2E/DX2 analytically  !
 ! D51   D(34,7,9,10)           -0.1307         calculate D2E/DX2 analytically  !
 ! D52   D(34,7,9,11)          179.9109         calculate D2E/DX2 analytically  !
 ! D53   D(1,7,34,35)         -179.6701         calculate D2E/DX2 analytically  !
 ! D54   D(1,7,34,38)           -0.0164         calculate D2E/DX2 analytically  !
 ! D55   D(9,7,34,35)           -0.1046         calculate D2E/DX2 analytically  !
 ! D56   D(9,7,34,38)          179.5492         calculate D2E/DX2 analytically  !
 ! D57   D(5,8,16,15)         -179.8292         calculate D2E/DX2 analytically  !
 ! D58   D(5,8,16,20)            0.2516         calculate D2E/DX2 analytically  !
 ! D59   D(37,8,16,15)           0.1346         calculate D2E/DX2 analytically  !
 ! D60   D(37,8,16,20)        -179.7846         calculate D2E/DX2 analytically  !
 ! D61   D(5,8,37,36)          179.9951         calculate D2E/DX2 analytically  !
 ! D62   D(5,8,37,45)            0.2154         calculate D2E/DX2 analytically  !
 ! D63   D(16,8,37,36)           0.0302         calculate D2E/DX2 analytically  !
 ! D64   D(16,8,37,45)        -179.7495         calculate D2E/DX2 analytically  !
 ! D65   D(7,9,10,14)          179.9438         calculate D2E/DX2 analytically  !
 ! D66   D(7,9,10,35)            0.3026         calculate D2E/DX2 analytically  !
 ! D67   D(11,9,10,14)          -0.0997         calculate D2E/DX2 analytically  !
 ! D68   D(11,9,10,35)        -179.7409         calculate D2E/DX2 analytically  !
 ! D69   D(7,9,11,12)          179.854          calculate D2E/DX2 analytically  !
 ! D70   D(7,9,11,21)            0.2789         calculate D2E/DX2 analytically  !
 ! D71   D(10,9,11,12)          -0.0963         calculate D2E/DX2 analytically  !
 ! D72   D(10,9,11,21)        -179.6713         calculate D2E/DX2 analytically  !
 ! D73   D(9,10,14,13)           0.0976         calculate D2E/DX2 analytically  !
 ! D74   D(9,10,14,86)        -177.8164         calculate D2E/DX2 analytically  !
 ! D75   D(35,10,14,13)        179.602          calculate D2E/DX2 analytically  !
 ! D76   D(35,10,14,86)          1.688          calculate D2E/DX2 analytically  !
 ! D77   D(9,10,35,34)          -0.3568         calculate D2E/DX2 analytically  !
 ! D78   D(9,10,35,41)        -179.5368         calculate D2E/DX2 analytically  !
 ! D79   D(14,10,35,34)       -179.897          calculate D2E/DX2 analytically  !
 ! D80   D(14,10,35,41)          0.923          calculate D2E/DX2 analytically  !
 ! D81   D(9,11,12,13)           0.3029         calculate D2E/DX2 analytically  !
 ! D82   D(9,11,12,85)        -177.5233         calculate D2E/DX2 analytically  !
 ! D83   D(21,11,12,13)        179.7861         calculate D2E/DX2 analytically  !
 ! D84   D(21,11,12,85)          1.9599         calculate D2E/DX2 analytically  !
 ! D85   D(9,11,21,6)            0.1184         calculate D2E/DX2 analytically  !
 ! D86   D(9,11,21,20)        -179.7775         calculate D2E/DX2 analytically  !
 ! D87   D(12,11,21,6)        -179.3515         calculate D2E/DX2 analytically  !
 ! D88   D(12,11,21,20)          0.7526         calculate D2E/DX2 analytically  !
 ! D89   D(11,12,13,14)         -0.3215         calculate D2E/DX2 analytically  !
 ! D90   D(11,12,13,22)        179.516          calculate D2E/DX2 analytically  !
 ! D91   D(85,12,13,14)        177.5311         calculate D2E/DX2 analytically  !
 ! D92   D(85,12,13,22)         -2.6313         calculate D2E/DX2 analytically  !
 ! D93   D(12,13,14,10)          0.0989         calculate D2E/DX2 analytically  !
 ! D94   D(12,13,14,86)        178.0355         calculate D2E/DX2 analytically  !
 ! D95   D(22,13,14,10)       -179.7394         calculate D2E/DX2 analytically  !
 ! D96   D(22,13,14,86)         -1.8028         calculate D2E/DX2 analytically  !
 ! D97   D(12,13,22,29)        143.0754         calculate D2E/DX2 analytically  !
 ! D98   D(12,13,22,33)        -36.999          calculate D2E/DX2 analytically  !
 ! D99   D(14,13,22,29)        -37.0843         calculate D2E/DX2 analytically  !
 ! D100  D(14,13,22,33)        142.8413         calculate D2E/DX2 analytically  !
 ! D101  D(17,15,16,8)        -179.7152         calculate D2E/DX2 analytically  !
 ! D102  D(17,15,16,20)          0.2004         calculate D2E/DX2 analytically  !
 ! D103  D(36,15,16,8)          -0.238          calculate D2E/DX2 analytically  !
 ! D104  D(36,15,16,20)        179.6776         calculate D2E/DX2 analytically  !
 ! D105  D(16,15,17,18)          0.0753         calculate D2E/DX2 analytically  !
 ! D106  D(16,15,17,87)        177.8624         calculate D2E/DX2 analytically  !
 ! D107  D(36,15,17,18)       -179.2027         calculate D2E/DX2 analytically  !
 ! D108  D(36,15,17,87)         -1.4155         calculate D2E/DX2 analytically  !
 ! D109  D(16,15,36,37)          0.2505         calculate D2E/DX2 analytically  !
 ! D110  D(16,15,36,42)        179.5224         calculate D2E/DX2 analytically  !
 ! D111  D(17,15,36,37)        179.5805         calculate D2E/DX2 analytically  !
 ! D112  D(17,15,36,42)         -1.1475         calculate D2E/DX2 analytically  !
 ! D113  D(8,16,20,19)         179.6526         calculate D2E/DX2 analytically  !
 ! D114  D(8,16,20,21)          -0.6475         calculate D2E/DX2 analytically  !
 ! D115  D(15,16,20,19)         -0.2507         calculate D2E/DX2 analytically  !
 ! D116  D(15,16,20,21)        179.4491         calculate D2E/DX2 analytically  !
 ! D117  D(15,17,18,19)         -0.2687         calculate D2E/DX2 analytically  !
 ! D118  D(15,17,18,24)        179.561          calculate D2E/DX2 analytically  !
 ! D119  D(87,17,18,19)       -178.0801         calculate D2E/DX2 analytically  !
 ! D120  D(87,17,18,24)          1.7496         calculate D2E/DX2 analytically  !
 ! D121  D(17,18,19,20)          0.2139         calculate D2E/DX2 analytically  !
 ! D122  D(17,18,19,88)       -177.8679         calculate D2E/DX2 analytically  !
 ! D123  D(24,18,19,20)       -179.6149         calculate D2E/DX2 analytically  !
 ! D124  D(24,18,19,88)          2.3032         calculate D2E/DX2 analytically  !
 ! D125  D(17,18,24,23)       -142.6655         calculate D2E/DX2 analytically  !
 ! D126  D(17,18,24,28)         37.2587         calculate D2E/DX2 analytically  !
 ! D127  D(19,18,24,23)         37.1662         calculate D2E/DX2 analytically  !
 ! D128  D(19,18,24,28)       -142.9096         calculate D2E/DX2 analytically  !
 ! D129  D(18,19,20,16)          0.0367         calculate D2E/DX2 analytically  !
 ! D130  D(18,19,20,21)       -179.5983         calculate D2E/DX2 analytically  !
 ! D131  D(88,19,20,16)        178.095          calculate D2E/DX2 analytically  !
 ! D132  D(88,19,20,21)         -1.54           calculate D2E/DX2 analytically  !
 ! D133  D(16,20,21,6)           0.6538         calculate D2E/DX2 analytically  !
 ! D134  D(16,20,21,11)       -179.4504         calculate D2E/DX2 analytically  !
 ! D135  D(19,20,21,6)        -179.7206         calculate D2E/DX2 analytically  !
 ! D136  D(19,20,21,11)          0.1752         calculate D2E/DX2 analytically  !
 ! D137  D(13,22,29,30)        179.9381         calculate D2E/DX2 analytically  !
 ! D138  D(13,22,29,94)         -1.7508         calculate D2E/DX2 analytically  !
 ! D139  D(33,22,29,30)          0.0101         calculate D2E/DX2 analytically  !
 ! D140  D(33,22,29,94)        178.3212         calculate D2E/DX2 analytically  !
 ! D141  D(13,22,33,32)       -179.9255         calculate D2E/DX2 analytically  !
 ! D142  D(13,22,33,98)         -1.539          calculate D2E/DX2 analytically  !
 ! D143  D(29,22,33,32)          0.0024         calculate D2E/DX2 analytically  !
 ! D144  D(29,22,33,98)        178.3889         calculate D2E/DX2 analytically  !
 ! D145  D(25,23,24,18)        179.9298         calculate D2E/DX2 analytically  !
 ! D146  D(25,23,24,28)          0.0033         calculate D2E/DX2 analytically  !
 ! D147  D(89,23,24,18)          1.5527         calculate D2E/DX2 analytically  !
 ! D148  D(89,23,24,28)       -178.3738         calculate D2E/DX2 analytically  !
 ! D149  D(24,23,25,26)          0.027          calculate D2E/DX2 analytically  !
 ! D150  D(24,23,25,90)       -179.4641         calculate D2E/DX2 analytically  !
 ! D151  D(89,23,25,26)        178.4005         calculate D2E/DX2 analytically  !
 ! D152  D(89,23,25,90)         -1.0907         calculate D2E/DX2 analytically  !
 ! D153  D(18,24,28,27)       -179.951          calculate D2E/DX2 analytically  !
 ! D154  D(18,24,28,93)          1.7319         calculate D2E/DX2 analytically  !
 ! D155  D(23,24,28,27)         -0.0244         calculate D2E/DX2 analytically  !
 ! D156  D(23,24,28,93)       -178.3415         calculate D2E/DX2 analytically  !
 ! D157  D(23,25,26,27)         -0.0361         calculate D2E/DX2 analytically  !
 ! D158  D(23,25,26,91)        179.9456         calculate D2E/DX2 analytically  !
 ! D159  D(90,25,26,27)        179.4525         calculate D2E/DX2 analytically  !
 ! D160  D(90,25,26,91)         -0.5658         calculate D2E/DX2 analytically  !
 ! D161  D(25,26,27,28)          0.0151         calculate D2E/DX2 analytically  !
 ! D162  D(25,26,27,92)        179.4375         calculate D2E/DX2 analytically  !
 ! D163  D(91,26,27,28)       -179.9666         calculate D2E/DX2 analytically  !
 ! D164  D(91,26,27,92)         -0.5443         calculate D2E/DX2 analytically  !
 ! D165  D(26,27,28,24)          0.0154         calculate D2E/DX2 analytically  !
 ! D166  D(26,27,28,93)        178.33           calculate D2E/DX2 analytically  !
 ! D167  D(92,27,28,24)       -179.4098         calculate D2E/DX2 analytically  !
 ! D168  D(92,27,28,93)         -1.0952         calculate D2E/DX2 analytically  !
 ! D169  D(22,29,30,31)         -0.0049         calculate D2E/DX2 analytically  !
 ! D170  D(22,29,30,95)        179.4161         calculate D2E/DX2 analytically  !
 ! D171  D(94,29,30,31)       -178.3137         calculate D2E/DX2 analytically  !
 ! D172  D(94,29,30,95)          1.1073         calculate D2E/DX2 analytically  !
 ! D173  D(29,30,31,32)         -0.0128         calculate D2E/DX2 analytically  !
 ! D174  D(29,30,31,96)        179.9653         calculate D2E/DX2 analytically  !
 ! D175  D(95,30,31,32)       -179.431          calculate D2E/DX2 analytically  !
 ! D176  D(95,30,31,96)          0.5471         calculate D2E/DX2 analytically  !
 ! D177  D(30,31,32,33)          0.0252         calculate D2E/DX2 analytically  !
 ! D178  D(30,31,32,97)       -179.4655         calculate D2E/DX2 analytically  !
 ! D179  D(96,31,32,33)       -179.9529         calculate D2E/DX2 analytically  !
 ! D180  D(96,31,32,97)          0.5564         calculate D2E/DX2 analytically  !
 ! D181  D(31,32,33,22)         -0.0201         calculate D2E/DX2 analytically  !
 ! D182  D(31,32,33,98)       -178.403          calculate D2E/DX2 analytically  !
 ! D183  D(97,32,33,22)        179.4731         calculate D2E/DX2 analytically  !
 ! D184  D(97,32,33,98)          1.0903         calculate D2E/DX2 analytically  !
 ! D185  D(7,34,35,10)           0.2856         calculate D2E/DX2 analytically  !
 ! D186  D(7,34,35,41)         179.6681         calculate D2E/DX2 analytically  !
 ! D187  D(38,34,35,10)       -179.3561         calculate D2E/DX2 analytically  !
 ! D188  D(38,34,35,41)          0.0264         calculate D2E/DX2 analytically  !
 ! D189  D(7,34,38,39)        -179.6866         calculate D2E/DX2 analytically  !
 ! D190  D(7,34,38,50)           0.7327         calculate D2E/DX2 analytically  !
 ! D191  D(35,34,38,39)         -0.0942         calculate D2E/DX2 analytically  !
 ! D192  D(35,34,38,50)       -179.6749         calculate D2E/DX2 analytically  !
 ! D193  D(10,35,41,40)        179.0954         calculate D2E/DX2 analytically  !
 ! D194  D(10,35,41,100)         0.9238         calculate D2E/DX2 analytically  !
 ! D195  D(34,35,41,40)         -0.0224         calculate D2E/DX2 analytically  !
 ! D196  D(34,35,41,100)      -178.194          calculate D2E/DX2 analytically  !
 ! D197  D(15,36,37,8)          -0.1745         calculate D2E/DX2 analytically  !
 ! D198  D(15,36,37,45)        179.5976         calculate D2E/DX2 analytically  !
 ! D199  D(42,36,37,8)        -179.6263         calculate D2E/DX2 analytically  !
 ! D200  D(42,36,37,45)          0.1458         calculate D2E/DX2 analytically  !
 ! D201  D(15,36,42,43)       -179.2328         calculate D2E/DX2 analytically  !
 ! D202  D(15,36,42,101)        -1.055          calculate D2E/DX2 analytically  !
 ! D203  D(37,36,42,43)         -0.0161         calculate D2E/DX2 analytically  !
 ! D204  D(37,36,42,101)       178.1617         calculate D2E/DX2 analytically  !
 ! D205  D(8,37,45,44)         179.6615         calculate D2E/DX2 analytically  !
 ! D206  D(8,37,45,48)          -0.8033         calculate D2E/DX2 analytically  !
 ! D207  D(36,37,45,44)         -0.0793         calculate D2E/DX2 analytically  !
 ! D208  D(36,37,45,48)        179.4559         calculate D2E/DX2 analytically  !
 ! D209  D(34,38,39,40)          0.1606         calculate D2E/DX2 analytically  !
 ! D210  D(34,38,39,99)       -178.1844         calculate D2E/DX2 analytically  !
 ! D211  D(50,38,39,40)        179.7091         calculate D2E/DX2 analytically  !
 ! D212  D(50,38,39,99)          1.3641         calculate D2E/DX2 analytically  !
 ! D213  D(34,38,50,2)          -1.0812         calculate D2E/DX2 analytically  !
 ! D214  D(34,38,50,51)        123.7513         calculate D2E/DX2 analytically  !
 ! D215  D(34,38,50,54)       -126.1562         calculate D2E/DX2 analytically  !
 ! D216  D(39,38,50,2)         179.3869         calculate D2E/DX2 analytically  !
 ! D217  D(39,38,50,51)        -55.7805         calculate D2E/DX2 analytically  !
 ! D218  D(39,38,50,54)         54.3119         calculate D2E/DX2 analytically  !
 ! D219  D(38,39,40,41)         -0.1676         calculate D2E/DX2 analytically  !
 ! D220  D(38,39,40,46)        179.5251         calculate D2E/DX2 analytically  !
 ! D221  D(99,39,40,41)        178.1878         calculate D2E/DX2 analytically  !
 ! D222  D(99,39,40,46)         -2.1196         calculate D2E/DX2 analytically  !
 ! D223  D(39,40,41,35)          0.0924         calculate D2E/DX2 analytically  !
 ! D224  D(39,40,41,100)       178.2907         calculate D2E/DX2 analytically  !
 ! D225  D(46,40,41,35)       -179.6004         calculate D2E/DX2 analytically  !
 ! D226  D(46,40,41,100)        -1.4021         calculate D2E/DX2 analytically  !
 ! D227  D(39,40,46,80)        143.4134         calculate D2E/DX2 analytically  !
 ! D228  D(39,40,46,84)        -36.735          calculate D2E/DX2 analytically  !
 ! D229  D(41,40,46,80)        -36.8906         calculate D2E/DX2 analytically  !
 ! D230  D(41,40,46,84)        142.9609         calculate D2E/DX2 analytically  !
 ! D231  D(36,42,43,44)         -0.1653         calculate D2E/DX2 analytically  !
 ! D232  D(36,42,43,47)        179.5393         calculate D2E/DX2 analytically  !
 ! D233  D(101,42,43,44)      -178.3698         calculate D2E/DX2 analytically  !
 ! D234  D(101,42,43,47)         1.3348         calculate D2E/DX2 analytically  !
 ! D235  D(42,43,44,45)          0.2383         calculate D2E/DX2 analytically  !
 ! D236  D(42,43,44,102)      -178.0961         calculate D2E/DX2 analytically  !
 ! D237  D(47,43,44,45)       -179.4662         calculate D2E/DX2 analytically  !
 ! D238  D(47,43,44,102)         2.1994         calculate D2E/DX2 analytically  !
 ! D239  D(42,43,47,75)       -142.9664         calculate D2E/DX2 analytically  !
 ! D240  D(42,43,47,79)         36.868          calculate D2E/DX2 analytically  !
 ! D241  D(44,43,47,75)         36.7412         calculate D2E/DX2 analytically  !
 ! D242  D(44,43,47,79)       -143.4244         calculate D2E/DX2 analytically  !
 ! D243  D(43,44,45,37)         -0.1151         calculate D2E/DX2 analytically  !
 ! D244  D(43,44,45,48)       -179.6146         calculate D2E/DX2 analytically  !
 ! D245  D(102,44,45,37)       178.2087         calculate D2E/DX2 analytically  !
 ! D246  D(102,44,45,48)        -1.2907         calculate D2E/DX2 analytically  !
 ! D247  D(37,45,48,4)           0.8958         calculate D2E/DX2 analytically  !
 ! D248  D(37,45,48,55)        125.9177         calculate D2E/DX2 analytically  !
 ! D249  D(37,45,48,58)       -123.9875         calculate D2E/DX2 analytically  !
 ! D250  D(44,45,48,4)        -179.6231         calculate D2E/DX2 analytically  !
 ! D251  D(44,45,48,55)        -54.6012         calculate D2E/DX2 analytically  !
 ! D252  D(44,45,48,58)         55.4935         calculate D2E/DX2 analytically  !
 ! D253  D(40,46,80,81)        179.857          calculate D2E/DX2 analytically  !
 ! D254  D(40,46,80,124)        -1.8194         calculate D2E/DX2 analytically  !
 ! D255  D(84,46,80,81)          0.001          calculate D2E/DX2 analytically  !
 ! D256  D(84,46,80,124)       178.3246         calculate D2E/DX2 analytically  !
 ! D257  D(40,46,84,83)       -179.9015         calculate D2E/DX2 analytically  !
 ! D258  D(40,46,84,128)        -1.5853         calculate D2E/DX2 analytically  !
 ! D259  D(80,46,84,83)         -0.0456         calculate D2E/DX2 analytically  !
 ! D260  D(80,46,84,128)       178.2706         calculate D2E/DX2 analytically  !
 ! D261  D(43,47,75,76)        179.8826         calculate D2E/DX2 analytically  !
 ! D262  D(43,47,75,119)         1.5689         calculate D2E/DX2 analytically  !
 ! D263  D(79,47,75,76)          0.0433         calculate D2E/DX2 analytically  !
 ! D264  D(79,47,75,119)      -178.2703         calculate D2E/DX2 analytically  !
 ! D265  D(43,47,79,78)       -179.838          calculate D2E/DX2 analytically  !
 ! D266  D(43,47,79,123)         1.8315         calculate D2E/DX2 analytically  !
 ! D267  D(75,47,79,78)          0.0013         calculate D2E/DX2 analytically  !
 ! D268  D(75,47,79,123)      -178.3292         calculate D2E/DX2 analytically  !
 ! D269  D(4,48,55,56)        -121.6251         calculate D2E/DX2 analytically  !
 ! D270  D(4,48,55,71)          60.0035         calculate D2E/DX2 analytically  !
 ! D271  D(45,48,55,56)        113.2521         calculate D2E/DX2 analytically  !
 ! D272  D(45,48,55,71)        -65.1194         calculate D2E/DX2 analytically  !
 ! D273  D(58,48,55,56)         -2.7122         calculate D2E/DX2 analytically  !
 ! D274  D(58,48,55,71)        178.9163         calculate D2E/DX2 analytically  !
 ! D275  D(4,48,58,57)         121.7034         calculate D2E/DX2 analytically  !
 ! D276  D(4,48,58,62)         -59.8115         calculate D2E/DX2 analytically  !
 ! D277  D(45,48,58,57)       -113.2305         calculate D2E/DX2 analytically  !
 ! D278  D(45,48,58,62)         65.2545         calculate D2E/DX2 analytically  !
 ! D279  D(55,48,58,57)          2.6877         calculate D2E/DX2 analytically  !
 ! D280  D(55,48,58,62)       -178.8273         calculate D2E/DX2 analytically  !
 ! D281  D(2,50,51,52)        -121.7384         calculate D2E/DX2 analytically  !
 ! D282  D(2,50,51,63)          59.7516         calculate D2E/DX2 analytically  !
 ! D283  D(38,50,51,52)        113.2181         calculate D2E/DX2 analytically  !
 ! D284  D(38,50,51,63)        -65.2919         calculate D2E/DX2 analytically  !
 ! D285  D(54,50,51,52)         -2.6804         calculate D2E/DX2 analytically  !
 ! D286  D(54,50,51,63)        178.8096         calculate D2E/DX2 analytically  !
 ! D287  D(2,50,54,53)         121.6084         calculate D2E/DX2 analytically  !
 ! D288  D(2,50,54,70)         -60.0507         calculate D2E/DX2 analytically  !
 ! D289  D(38,50,54,53)       -113.2483         calculate D2E/DX2 analytically  !
 ! D290  D(38,50,54,70)         65.0926         calculate D2E/DX2 analytically  !
 ! D291  D(51,50,54,53)          2.7298         calculate D2E/DX2 analytically  !
 ! D292  D(51,50,54,70)       -178.9293         calculate D2E/DX2 analytically  !
 ! D293  D(50,51,52,53)          1.7575         calculate D2E/DX2 analytically  !
 ! D294  D(50,51,52,66)       -178.4986         calculate D2E/DX2 analytically  !
 ! D295  D(63,51,52,53)       -179.6058         calculate D2E/DX2 analytically  !
 ! D296  D(63,51,52,66)          0.138          calculate D2E/DX2 analytically  !
 ! D297  D(50,51,63,64)        178.4129         calculate D2E/DX2 analytically  !
 ! D298  D(50,51,63,107)        -1.4668         calculate D2E/DX2 analytically  !
 ! D299  D(52,51,63,64)          0.0392         calculate D2E/DX2 analytically  !
 ! D300  D(52,51,63,107)      -179.8405         calculate D2E/DX2 analytically  !
 ! D301  D(51,52,53,54)          0.0785         calculate D2E/DX2 analytically  !
 ! D302  D(51,52,53,67)        179.8106         calculate D2E/DX2 analytically  !
 ! D303  D(66,52,53,54)       -179.6281         calculate D2E/DX2 analytically  !
 ! D304  D(66,52,53,67)          0.104          calculate D2E/DX2 analytically  !
 ! D305  D(51,52,66,65)         -0.1842         calculate D2E/DX2 analytically  !
 ! D306  D(51,52,66,110)      -179.9462         calculate D2E/DX2 analytically  !
 ! D307  D(53,52,66,65)        179.4946         calculate D2E/DX2 analytically  !
 ! D308  D(53,52,66,110)        -0.2674         calculate D2E/DX2 analytically  !
 ! D309  D(52,53,54,50)         -1.8842         calculate D2E/DX2 analytically  !
 ! D310  D(52,53,54,70)        179.6342         calculate D2E/DX2 analytically  !
 ! D311  D(67,53,54,50)        178.3497         calculate D2E/DX2 analytically  !
 ! D312  D(67,53,54,70)         -0.132          calculate D2E/DX2 analytically  !
 ! D313  D(52,53,67,68)       -179.5045         calculate D2E/DX2 analytically  !
 ! D314  D(52,53,67,111)         0.2235         calculate D2E/DX2 analytically  !
 ! D315  D(54,53,67,68)          0.2023         calculate D2E/DX2 analytically  !
 ! D316  D(54,53,67,111)       179.9304         calculate D2E/DX2 analytically  !
 ! D317  D(50,54,70,69)       -178.2569         calculate D2E/DX2 analytically  !
 ! D318  D(50,54,70,114)         1.6172         calculate D2E/DX2 analytically  !
 ! D319  D(53,54,70,69)         -0.0675         calculate D2E/DX2 analytically  !
 ! D320  D(53,54,70,114)       179.8066         calculate D2E/DX2 analytically  !
 ! D321  D(48,55,56,57)          1.8487         calculate D2E/DX2 analytically  !
 ! D322  D(48,55,56,74)       -178.3846         calculate D2E/DX2 analytically  !
 ! D323  D(71,55,56,57)       -179.6416         calculate D2E/DX2 analytically  !
 ! D324  D(71,55,56,74)          0.125          calculate D2E/DX2 analytically  !
 ! D325  D(48,55,71,72)        178.2886         calculate D2E/DX2 analytically  !
 ! D326  D(48,55,71,115)        -1.5897         calculate D2E/DX2 analytically  !
 ! D327  D(56,55,71,72)          0.0658         calculate D2E/DX2 analytically  !
 ! D328  D(56,55,71,115)      -179.8124         calculate D2E/DX2 analytically  !
 ! D329  D(55,56,57,58)         -0.0388         calculate D2E/DX2 analytically  !
 ! D330  D(55,56,57,59)        179.6696         calculate D2E/DX2 analytically  !
 ! D331  D(74,56,57,58)       -179.7714         calculate D2E/DX2 analytically  !
 ! D332  D(74,56,57,59)         -0.063          calculate D2E/DX2 analytically  !
 ! D333  D(55,56,74,73)         -0.193          calculate D2E/DX2 analytically  !
 ! D334  D(55,56,74,118)      -179.9233         calculate D2E/DX2 analytically  !
 ! D335  D(57,56,74,73)        179.5144         calculate D2E/DX2 analytically  !
 ! D336  D(57,56,74,118)        -0.2159         calculate D2E/DX2 analytically  !
 ! D337  D(56,57,58,48)         -1.7859         calculate D2E/DX2 analytically  !
 ! D338  D(56,57,58,62)        179.6003         calculate D2E/DX2 analytically  !
 ! D339  D(59,57,58,48)        178.4685         calculate D2E/DX2 analytically  !
 ! D340  D(59,57,58,62)         -0.1453         calculate D2E/DX2 analytically  !
 ! D341  D(56,57,59,60)       -179.4876         calculate D2E/DX2 analytically  !
 ! D342  D(56,57,59,103)         0.2711         calculate D2E/DX2 analytically  !
 ! D343  D(58,57,59,60)          0.1934         calculate D2E/DX2 analytically  !
 ! D344  D(58,57,59,103)       179.9521         calculate D2E/DX2 analytically  !
 ! D345  D(48,58,62,61)       -178.3866         calculate D2E/DX2 analytically  !
 ! D346  D(48,58,62,106)         1.4882         calculate D2E/DX2 analytically  !
 ! D347  D(57,58,62,61)         -0.04           calculate D2E/DX2 analytically  !
 ! D348  D(57,58,62,106)       179.8348         calculate D2E/DX2 analytically  !
 ! D349  D(57,59,60,61)         -0.0601         calculate D2E/DX2 analytically  !
 ! D350  D(57,59,60,104)       179.8904         calculate D2E/DX2 analytically  !
 ! D351  D(103,59,60,61)      -179.8197         calculate D2E/DX2 analytically  !
 ! D352  D(103,59,60,104)        0.1308         calculate D2E/DX2 analytically  !
 ! D353  D(59,60,61,62)         -0.1259         calculate D2E/DX2 analytically  !
 ! D354  D(59,60,61,105)       179.998          calculate D2E/DX2 analytically  !
 ! D355  D(104,60,61,62)       179.9236         calculate D2E/DX2 analytically  !
 ! D356  D(104,60,61,105)        0.0475         calculate D2E/DX2 analytically  !
 ! D357  D(60,61,62,58)          0.1745         calculate D2E/DX2 analytically  !
 ! D358  D(60,61,62,106)      -179.7012         calculate D2E/DX2 analytically  !
 ! D359  D(105,61,62,58)      -179.9492         calculate D2E/DX2 analytically  !
 ! D360  D(105,61,62,106)        0.1751         calculate D2E/DX2 analytically  !
 ! D361  D(51,63,64,65)         -0.1677         calculate D2E/DX2 analytically  !
 ! D362  D(51,63,64,108)       179.9514         calculate D2E/DX2 analytically  !
 ! D363  D(107,63,64,65)       179.7129         calculate D2E/DX2 analytically  !
 ! D364  D(107,63,64,108)       -0.168          calculate D2E/DX2 analytically  !
 ! D365  D(63,64,65,66)          0.1211         calculate D2E/DX2 analytically  !
 ! D366  D(63,64,65,109)      -179.9306         calculate D2E/DX2 analytically  !
 ! D367  D(108,64,65,66)      -179.9982         calculate D2E/DX2 analytically  !
 ! D368  D(108,64,65,109)       -0.05           calculate D2E/DX2 analytically  !
 ! D369  D(64,65,66,52)          0.0568         calculate D2E/DX2 analytically  !
 ! D370  D(64,65,66,110)       179.8198         calculate D2E/DX2 analytically  !
 ! D371  D(109,65,66,52)      -179.8915         calculate D2E/DX2 analytically  !
 ! D372  D(109,65,66,110)       -0.1285         calculate D2E/DX2 analytically  !
 ! D373  D(53,67,68,69)         -0.0766         calculate D2E/DX2 analytically  !
 ! D374  D(53,67,68,112)       179.8508         calculate D2E/DX2 analytically  !
 ! D375  D(111,67,68,69)      -179.8057         calculate D2E/DX2 analytically  !
 ! D376  D(111,67,68,112)        0.1217         calculate D2E/DX2 analytically  !
 ! D377  D(67,68,69,70)         -0.1237         calculate D2E/DX2 analytically  !
 ! D378  D(67,68,69,113)       179.9796         calculate D2E/DX2 analytically  !
 ! D379  D(112,68,69,70)       179.9489         calculate D2E/DX2 analytically  !
 ! D380  D(112,68,69,113)        0.0522         calculate D2E/DX2 analytically  !
 ! D381  D(68,69,70,54)          0.1942         calculate D2E/DX2 analytically  !
 ! D382  D(68,69,70,114)      -179.6808         calculate D2E/DX2 analytically  !
 ! D383  D(113,69,70,54)      -179.9088         calculate D2E/DX2 analytically  !
 ! D384  D(113,69,70,114)        0.2162         calculate D2E/DX2 analytically  !
 ! D385  D(55,71,72,73)         -0.1865         calculate D2E/DX2 analytically  !
 ! D386  D(55,71,72,116)       179.9128         calculate D2E/DX2 analytically  !
 ! D387  D(115,71,72,73)       179.6926         calculate D2E/DX2 analytically  !
 ! D388  D(115,71,72,116)       -0.208          calculate D2E/DX2 analytically  !
 ! D389  D(71,72,73,74)          0.1184         calculate D2E/DX2 analytically  !
 ! D390  D(71,72,73,117)      -179.9549         calculate D2E/DX2 analytically  !
 ! D391  D(116,72,73,74)      -179.9811         calculate D2E/DX2 analytically  !
 ! D392  D(116,72,73,117)       -0.0545         calculate D2E/DX2 analytically  !
 ! D393  D(72,73,74,56)          0.0733         calculate D2E/DX2 analytically  !
 ! D394  D(72,73,74,118)       179.8047         calculate D2E/DX2 analytically  !
 ! D395  D(117,73,74,56)      -179.8534         calculate D2E/DX2 analytically  !
 ! D396  D(117,73,74,118)       -0.122          calculate D2E/DX2 analytically  !
 ! D397  D(47,75,76,77)         -0.0525         calculate D2E/DX2 analytically  !
 ! D398  D(47,75,76,120)      -179.465          calculate D2E/DX2 analytically  !
 ! D399  D(119,75,76,77)       178.2611         calculate D2E/DX2 analytically  !
 ! D400  D(119,75,76,120)       -1.1513         calculate D2E/DX2 analytically  !
 ! D401  D(75,76,77,78)          0.016          calculate D2E/DX2 analytically  !
 ! D402  D(75,76,77,121)      -179.9831         calculate D2E/DX2 analytically  !
 ! D403  D(120,76,77,78)       179.4252         calculate D2E/DX2 analytically  !
 ! D404  D(120,76,77,121)       -0.5739         calculate D2E/DX2 analytically  !
 ! D405  D(76,77,78,79)          0.0283         calculate D2E/DX2 analytically  !
 ! D406  D(76,77,78,122)       179.4416         calculate D2E/DX2 analytically  !
 ! D407  D(121,77,78,79)      -179.9725         calculate D2E/DX2 analytically  !
 ! D408  D(121,77,78,122)       -0.5593         calculate D2E/DX2 analytically  !
 ! D409  D(77,78,79,47)         -0.0371         calculate D2E/DX2 analytically  !
 ! D410  D(77,78,79,123)       178.2942         calculate D2E/DX2 analytically  !
 ! D411  D(122,78,79,47)      -179.4534         calculate D2E/DX2 analytically  !
 ! D412  D(122,78,79,123)       -1.1221         calculate D2E/DX2 analytically  !
 ! D413  D(46,80,81,82)          0.0372         calculate D2E/DX2 analytically  !
 ! D414  D(46,80,81,125)       179.45           calculate D2E/DX2 analytically  !
 ! D415  D(124,80,81,82)      -178.2871         calculate D2E/DX2 analytically  !
 ! D416  D(124,80,81,125)        1.1257         calculate D2E/DX2 analytically  !
 ! D417  D(80,81,82,83)         -0.031          calculate D2E/DX2 analytically  !
 ! D418  D(80,81,82,126)       179.969          calculate D2E/DX2 analytically  !
 ! D419  D(125,81,82,83)      -179.4408         calculate D2E/DX2 analytically  !
 ! D420  D(125,81,82,126)        0.5593         calculate D2E/DX2 analytically  !
 ! D421  D(81,82,83,84)         -0.0132         calculate D2E/DX2 analytically  !
 ! D422  D(81,82,83,127)      -179.4244         calculate D2E/DX2 analytically  !
 ! D423  D(126,82,83,84)       179.9867         calculate D2E/DX2 analytically  !
 ! D424  D(126,82,83,127)        0.5756         calculate D2E/DX2 analytically  !
 ! D425  D(82,83,84,46)          0.0523         calculate D2E/DX2 analytically  !
 ! D426  D(82,83,84,128)      -178.2639         calculate D2E/DX2 analytically  !
 ! D427  D(127,83,84,46)       179.4666         calculate D2E/DX2 analytically  !
 ! D428  D(127,83,84,128)        1.1504         calculate D2E/DX2 analytically  !
 --------------------------------------------------------------------------------
 Trust Radius=3.00D-01 FncErr=1.00D-07 GrdErr=1.00D-07 EigMax=2.50D+02 EigMin=1.00D-04
 Number of steps in this run=      2 maximum allowed number of steps=      2.
 GradGradGradGradGradGradGradGradGradGradGradGradGradGradGradGradGradGrad

 Stoichiometry    C80H44BFN2
 Framework group  C1[X(C80H44BFN2)]
 Deg. of freedom   378
 Full point group                 C1      NOp   1
 Largest Abelian subgroup         C1      NOp   1
 Largest concise Abelian subgroup C1      NOp   1
                         Standard orientation:                         
[...]
 0.00000185,0.00000152,-0.00000099,0.00000012,-0.00000056,-0.00000034,0
 .00000103,0.00000168,-0.00000003,-0.00000103,0.00000052,0.00000054,0.0
 0000079,-0.00000017,-0.00000015,0.00000084,0.00000011,-0.00000068,0.00
 000052,0.00000051,0.00000062,-0.00000075,-0.00000026,-0.00000009,0.000
 00049,-0.00000061,0.00000008,-0.00000072,-0.00000005,0.00000012,0.0000
 0057,0.00000014,-0.00000043,0.00000038,-0.00000039,-0.00000040,-0.0000
 0006,0.00000012,-0.00003056,0.00004629,0.00001637,-0.00002036,-0.00002
 627,-0.00001609,-0.00000085,0.00000049,0.00000081,-0.00000114,-0.00000
 086,0.00000002,-0.00000080,-0.00000096,0.00000024,-0.00000079,-0.00000
 071,-0.00000085,-0.00000047,0.00000023,-0.00000078,-0.00000035,0.00000
 004,0.00000113,0.00000035,-0.00000133,0.00000158,-0.00000163,0.0000001
 0,-0.00000035,-0.00000336,-0.00000190,-0.00000322,-0.00000526,-0.00000
 571,0.00000176,-0.00000436,-0.00000609,-0.00000039,0.00000021,0.000000
 86,0.00000185,0.00000234,-0.00000005,-0.00000289,0.00000263,-0.0000027
 2,-0.00000153,-0.00000008,-0.00000033,-0.00000092,0.00000014,0.0000000
 4,0.00000017,-0.00000028,-0.00000039,0.00000068,-0.00000076,-0.0000011
 1,-0.00000002,0.00000072,0.00000050,-0.00000027,-0.00000055,-0.0000008
 9,0.00000055,-0.00000092,-0.00000028,0.00000002,-0.00000088,0.00000054
 ,-0.00000020,0.00000088,-0.00000034,0.00000009,-0.00032542,-0.00051812
 ,-0.00077225,-0.00029906,0.00083776,-0.00017044,-0.00081084,-0.0022370
 9,-0.00203752,0.03490576,-0.13702846,0.11043038,0.00002604,0.00012906,
 0.00000423,-0.00004158,-0.00008144,-0.00000222,0.00010501,-0.00003368,
 -0.00000705,-0.00006375,0.00003978,0.00000497,0.00000073,-0.00005650,-
 0.00000166,0.00003597,-0.00000002,-0.00000329,-0.00014308,0.00009906,0
 .00003005,-0.00002651,-0.00003114,0.00000090,-0.00003516,-0.00014638,-
 0.00000331,0.00011657,-0.00008825,0.00000541,-0.00010276,-0.00004353,-
 0.00000236,0.00002656,0.00005709,-0.00000169,-0.00002936,-0.00000778,0
 .00000011,0.00001434,0.00002332,-0.00000088,0.00002002,0.00007084,0.00
 000132,-0.00000072,0.00005121,0.00000181,-0.00000211,-0.00005157,-0.00
 000150,-0.00002359,0.00003043,0.00000216,0.00005099,-0.00006956,-0.000
 00612,-0.00010717,0.00007288,0.00000872,0.00015008,0.00000042,-0.00000
 823,0.00000133,0.00000755,-0.00000026,0.00001007,0.00000206,-0.0000032
 5,0.00000190,-0.00000606,0.00000039,0.00000432,-0.00000304,-0.00000543
 ,0.00000069,-0.00000357,-0.00000048,-0.00000238,-0.00000529,0.00000489
 ,-0.00001070,-0.00000343,0.00000251,0.00000069,-0.00000480,-0.00000012
 ,0.00000012,0.00000120,0.00000054,-0.00000007,-0.00000161,0.00000008,-
 0.00000126,0.00000036,-0.00000036,0.00000105,-0.00000186,0.00000047,0.
 00007113,-0.00020357,0.00002867,-0.00015264,0.00003237,0.00001797,-0.0
 0005573,-0.00005046,0.00000212,0.00000717,0.00004323,0.00000011,-0.000
 11030,0.00020637,0.00004141,-0.00033577,0.00018980,-0.00052425,-0.0003
 2353,-0.00007612,-0.00093636,0.00045619,-0.00032430,-0.00002338,0.0000
 4934,0.00007417,-0.00000398,-0.00000978,-0.00006690,-0.00000139,-0.000
 00526,0.00000485,0.00000160,0.00001111,-0.00004629,-0.00000218,0.00922
 263,0.00475904,-0.00514398,0.00000634,0.00000309,0.00000027,0.00000272
 ,0.00002864,0.00000260,-0.00000587,0.00003323,0.00000113,0.00000359,-0
 .00001344,-0.00006252,-0.00000772,-0.00000863,-0.00000453,-0.00000037,
 0.00000115,-0.00001032,0.00000562,-0.00001490,-0.00001476,0.00002963,0
 .00001717,-0.00001565,-0.00000154,-0.00001206,0.00001787,-0.00000017,0
 .00000147,-0.00000635,0.00000078,0.00000063,0.00000804,-0.00000344,-0.
 00000891,-0.00001922,-0.00000065,0.00000061,-0.00000085,0.00000022,0.0
 0000198,0.00000078,-0.00000071,-0.00000092,-0.00000169,0.00000056,0.00
 000461,0.00000177,-0.00000105,0.00000340,-0.00000063,-0.00000117,0.000
 00134,-0.00000007,-0.00000201,0.00000239,0.00000348,0.00000022,-0.0000
 0917,0.00000048,-0.00000700,-0.00001618,0.00000196,-0.00000981,-0.0000
 0771,0.00000063,-0.00000047,-0.00000471,0.00001725,0.00000955,0.000020
 59,0.00001961,0.00000017,0.00000588,-0.00000133,-0.00000089,-0.0000005
 2,0.00000160,-0.00000048,0.00000109,-0.00000094,-0.00000087,0.00000028
 ,0.00000040,0.00000399,-0.00001123,0.00000289,0.00000653,-0.00000274,0
 .00000466,0.00000378,0.00000184,-0.00000091,0.00000260,0.00000473,-0.0
 0000639,-0.00000259,0.00001185,-0.00000097,0.00021158,0.00250434,-0.00
 028688,-0.00019362,0.00060522,-0.00038638,-0.00392197,0.00412338,0.000
 35749,-0.01567805,-0.01725736,0.01731915,-0.17727112,-0.08999470,0.107
 33860,0.00000200,-0.00000016,0.00000363,-0.00000291,-0.00000100,0.0000
 0266,0.00000277,-0.00000068,0.00000173,-0.00000012,-0.00000462,-0.0000
 0218,0.00000062,0.00000297,-0.00000038,-0.00000102,-0.00000236,0.00000
 104,0.00000071,-0.00000213,0.00000006,0.00000220,-0.00000142,-0.000000
 87,-0.00000112,0.00000209,0.00000101,0.00000006,0.00000085,0.00000027,
 -0.00000106,-0.00000093,-0.00000023,-0.00000004,-0.00000060,-0.0000001
 4,0.00000027,0.00000006,0.00000002,-0.00000027,0.00000004,-0.00000090,
 -0.00127251,0.00049638,-0.00102264,-0.00000437,-0.00000931,-0.00001939
 ,0.00000270,-0.00000129,-0.00000151,0.00000279,0.00000255,0.00000039,0
 .00000095,0.00000214,0.00000036,0.00000058,0.00000106,0.00000117,0.000
 00021,0.00000009,0.00000127,0.00000037,0.00000009,-0.00000252,-0.00000
 057,0.00000142,-0.00000164,0.00000085,0.00000021,0.00000041,0.00000110
 ,0.00000093,0.00000255,0.00000269,0.00000509,-0.00000024,0.00000603,0.
 00000734,0.00000287,0.00000720,0.00000928,-0.00000636,0.00000731,0.000
 00014,-0.00000885,0.00000044,-0.00000099,0.00000356,0.00000101,-0.0000
 0091,0.00000288,0.00000072,0.00000017,-0.00000230,0.00000102,0.0000017
 9,-0.00000138,0.00000106,0.00000186,-0.00000005,-0.00000198,-0.0000007
 7,0.00000100,0.00000146,0.00000255,-0.00000097,0.00000219,0.00000090,0
 .00000020,0.00000227,-0.00000114,0.00000068,-0.00000238,0.00000115,0.0
 0000018,0.00048826,0.00036413,-0.00027503,-0.00001044,-0.00028441,-0.0
 0013471,-0.00088373,-0.00085345,0.00091466,0.00095495,-0.00051835,-0.0
 0111932,0.18871055,0.00004007,0.00001998,0.00000210,0.00000323,-0.0000
 1620,-0.00000167,-0.00002766,0.00002348,0.00000051,0.00001148,-0.00003
 474,-0.00000174,0.00000444,0.00004755,-0.00000007,-0.00002735,0.000006
 11,0.00000116,0.00004100,-0.00000943,0.00005605,0.00001737,-0.00000426
 ,-0.00000122,-0.00004263,0.00006723,0.00001178,0.00000941,0.00006028,0
 .00000563,0.00008607,0.00003143,-0.00001432,-0.00000585,-0.00001675,-0
 .00000225,-0.00003664,0.00002316,0.00000240,-0.00002823,-0.00008526,-0
 .00000604,0.00000006,-0.00004589,-0.00000168,-0.00001397,-0.00000629,0
 .00000045,-0.00001747,0.00003523,0.00000401,0.00001673,-0.00001388,-0.
 00000093,-0.00002714,0.00005270,-0.00000048,0.00007153,-0.00005364,-0.
 00000590,-0.00009224,0.00000029,0.00000604,-0.00000316,-0.00000917,-0.
 00000116,-0.00000344,0.00000087,0.00000054,-0.00000010,-0.00000285,-0.
 00000044,-0.00000191,0.00000017,0.00000148,-0.00000032,0.00000167,0.,0
 .00000095,0.00000130,-0.00000170,0.00000212,0.00000226,-0.00000076,0.0
 0000400,0.00000102,-0.00000018,-0.00000025,0.00000003,-0.00000211,0.00
 000106,0.00000260,-0.00000028,0.00000008,-0.00000072,0.00000002,0.0000
 0168,0.00000424,-0.00000203,0.00009309,0.00053036,0.00000230,-0.000411
 00,-0.00021340,0.00008971,0.00002030,0.00003390,0.00000007,-0.00000025
 ,-0.00003101,-0.00000074,0.00062073,-0.00024344,-0.00021050,-0.0005306
 9,0.00045777,-0.00051407,-0.00263857,-0.00002358,-0.00141962,0.0005422
 0,-0.00059357,-0.00009284,-0.00001572,-0.00002222,0.00000014,0.0000022
 9,0.00001962,0.00000013,-0.00000301,-0.00001126,0.00000035,0.00000047,
 0.00001991,-0.00000009,-0.01747603,-0.00994850,0.01401577,0.00000147,0
 .00000070,0.00000016,0.00000097,-0.00000054,0.00000121,0.00000012,-0.0
 0002189,-0.00000290,0.00001856,-0.00001441,-0.00000339,-0.00001875,0.0
 0002346,0.00003353,-0.00000433,-0.00000409,-0.00000326,-0.00000419,0.0
 0001097,0.00000171,-0.00001956,0.00001966,0.00000674,-0.00000006,0.000
 00140,-0.00000474,0.00000018,-0.00000017,0.00000252,-0.00000014,-0.000
 00085,-0.00000092,0.00000103,0.00000370,0.00000526,0.00000079,0.000000
 39,-0.00000024,0.00000035,-0.00000028,-0.00000081,0.00000062,-0.000000
 45,0.00000034,0.00000009,-0.00000202,-0.00000036,0.00000113,-0.0000130
 8,-0.00000230,0.00000386,0.00000120,-0.00000329,0.00000424,-0.00000635
 ,-0.00001032,0.00001060,0.00000395,-0.00000326,0.00002560,-0.00000584,
 -0.00001096,0.00000849,-0.00000165,0.00001598,-0.00001101,0.00000912,-
 0.00001102,-0.00003187,-0.00000600,0.00000117,-0.00000055,0.00000071,0
 .00000142,-0.00000019,0.00000004,-0.00000092,-0.00000006,-0.00000056,-
 0.00000005,0.00000077,0.00000037,-0.00000045,-0.00000159,0.00000199,-0
 .00000093,-0.00000170,0.00000103,-0.00000165,-0.00000165,-0.00000098,0
 .00000025,-0.00000041,-0.00000133,0.00000174,-0.00000048,-0.00000365,-
 0.00000011,0.00347592,-0.00185662,0.00445214,0.00087107,-0.00050817,-0
 .00009116,0.00305029,0.00234836,0.00270164,0.00763766,0.00862914,-0.00
 638705,-0.08966385,-0.12510746,0.08982931,0.,0.00000259,0.00000171,0.0
 0000412,0.00000232,0.00000733,-0.00000103,-0.00000003,-0.00000120,-0.0
 0000055,0.00000084,0.00000319,0.,-0.00000174,0.00000109,0.00000067,0.0
 0000125,-0.00000029,-0.00000024,0.00000109,0.00000020,-0.00000071,0.00
 000062,0.00000060,0.00000114,-0.00000099,-0.00000070,-0.00000173,-0.00
 000039,0.00000176,0.00000018,0.00000039,0.00000152,-0.00000012,0.00000
 112,0.00000040,-0.00000090,0.00000099,0.00000008,-0.00000035,-0.000000
 62,0.00000099,-0.00003975,0.00054511,0.00021820,-0.00000335,0.00006712
 ,0.00000209,-0.00000067,0.00000055,0.00000098,-0.00000121,-0.00000050,
 -0.00000004,-0.00000078,-0.00000084,0.00000022,-0.00000078,-0.00000074
 ,-0.00000083,-0.00000057,0.00000020,-0.00000091,-0.00000043,0.00000010
 ,0.00000130,-0.00000167,0.00000008,0.00000386,-0.00000266,-0.00000183,
 -0.00000284,-0.00000321,-0.00000213,-0.00000296,-0.00000649,-0.0000090
 6,-0.00000134,-0.00001123,-0.00001426,-0.00000320,-0.00000513,-0.00000
 561,0.00000550,0.00000473,0.00000313,-0.00000542,0.00002133,-0.0000129
 6,-0.00000807,0.00000057,-0.00000104,-0.00000094,0.00000048,0.00000042
 ,-0.00000033,-0.00000034,-0.00000045,0.00000068,-0.00000086,-0.0000011
 5,-0.00000015,0.00000071,0.00000065,-0.00000042,-0.00000051,-0.0000008
 0,0.00000058,-0.00000093,-0.00000026,0.00000004,-0.00000085,0.00000055
 ,-0.00000019,0.00000086,-0.00000033,0.00000024,-0.00099188,-0.00050305
 ,0.00090478,-0.00029898,-0.00028865,-0.00056526,0.00048254,0.00039511,
 -0.00019836,-0.00095504,-0.00060856,-0.00218694,0.09627555,0.12687488,
 0.00000285,-0.00000488,0.00000249,-0.00005109,0.00001542,-0.00000149,0
 .00005836,0.00001034,-0.00000551,-0.00002547,0.00005648,0.00000300,0.0
 0000339,-0.00005518,-0.00000317,0.00000024,0.00000664,-0.00000017,0.00
 001256,-0.00008815,0.00000912,-0.00002765,0.00002896,0.00000237,0.0000
 0021,-0.00002712,-0.00000411,0.00003668,-0.00012523,-0.00003563,-0.000
 04899,-0.00008185,0.00000221,0.00002897,0.00006275,0.00000043,-0.00000
 774,-0.00002134,0.00000085,0.00003508,0.00007894,0.00000093,-0.0000150
 5,0.00005469,0.00000322,0.00002604,-0.00001729,-0.00000177,0.00002274,
 -0.00005200,-0.00000650,-0.00001052,0.00001928,0.00000137,0.00002799,-
 0.00005600,-0.00000161,-0.00007892,0.00005834,0.00000529,0.00009936,-0
 .00001076,-0.00000479,0.00000491,0.00001222,-0.00000061,0.00000285,-0.
 00000123,-0.00000107,-0.00000013,0.00000406,0.00000056,0.00000201,-0.0
 0000060,-0.00000220,0.00000027,-0.00000214,-0.00000020,-0.00000136,-0.
 00000166,0.00000164,-0.00000268,-0.00000295,0.00000036,-0.00000106,-0.
 00000591,0.00000160,-0.00000031,0.00000177,0.00000094,-0.00000091,-0.0
 0000271,0.00000049,-0.00000067,0.00000080,-0.00000021,0.00000092,-0.00
 000422,0.00000093,0.00000387,0.00001089,-0.00005973,-0.00015931,0.0000
 1796,0.00011409,-0.00001686,-0.00003564,-0.00000075,-0.00000315,0.0000
 2850,0.00000159,0.00000668,-0.00049033,0.00002559,-0.00015118,0.000872
 50,0.00031328,-0.00062721,-0.00181987,-0.00183611,0.00034642,-0.000237
 97,0.00013281,0.00001133,0.00001427,0.00000020,-0.00000065,-0.00001365
 ,0.00000016,0.00000293,0.00001286,-0.00000074,-0.00000348,-0.00001068,
 -0.00000008,0.01166028,0.00641290,-0.00482024,-0.00000390,-0.00000185,
 -0.00000036,-0.00000246,-0.00000308,0.00000159,0.00000770,-0.00000881,
 -0.00000362,-0.00007655,-0.00000667,0.00002250,0.00001169,0.00002714,-
 0.00000326,-0.00000532,-0.00000552,-0.00000192,0.00000623,-0.00000088,
 0.00000815,0.00002379,0.00002411,0.00000824,0.00000065,-0.00000188,0.0
 0000151,-0.00000036,0.00000006,-0.00000040,-0.00000012,-0.00000045,0.0
 0000213,0.00000136,0.00000053,-0.00000176,0.00000109,-0.00000048,-0.00
 000017,0.00000160,-0.00000045,-0.00000054,0.00000086,0.00000019,-0.000
 00214,0.00000170,0.00000058,0.,0.00000093,0.00000893,-0.00000696,0.000
 00183,0.00000164,-0.00000967,0.00000560,-0.00000380,-0.00001340,0.0000
 1991,-0.00001141,-0.00000587,0.00002500,-0.00001388,0.00000346,0.00000
 153,0.00000002,0.00001094,-0.00001711,0.00000303,-0.00000329,-0.000009
 40,0.00000076,0.00001246,0.00000119,0.00000189,0.00000011,0.00000060,0
 .00000040,0.00000151,0.00000096,-0.00000105,-0.00000016,0.00000072,-0.
 00000077,-0.00000041,0.00000173,-0.00000067,-0.00000001,0.00000100,-0.
 00000111,0.00000090,0.00000150,0.00000069,-0.00000045,-0.00000014,0.00
 000076,-0.00000145,0.00000157,0.00000194,-0.00000004,-0.00096066,0.004
 53374,0.00308576,-0.00036599,-0.00024244,-0.00016597,0.00101433,0.0026
 6524,0.00519727,-0.00074083,0.00086341,0.00253873,0.10730764,0.0909288
 0,-0.13300016,0.00000148,-0.00000162,0.00000169,-0.00000443,-0.0000044
 9,-0.00000010,0.00000074,-0.00000011,0.00000206,-0.00000004,-0.0000018
 5,-0.00000169,0.00000063,0.00000221,-0.00000083,-0.00000047,-0.0000012
 9,0.00000077,0.00000048,-0.00000130,0.00000003,0.00000118,-0.00000072,
 -0.00000045,-0.00000105,0.00000141,0.00000136,0.00000101,0.00000116,-0
 .00000085,-0.00000085,-0.00000161,-0.00000103,0.00000025,-0.00000051,-
 0.00000034,0.00000011,0.00000006,-0.00000024,-0.00000057,0.00000017,-0
 .00000126,-0.00104716,-0.00053572,-0.00046374,0.00001695,-0.00007237,-
 0.00005135,0.00000074,-0.00000072,-0.00000047,0.00000013,0.00000012,0.
 00000075,-0.00000123,0.00000022,0.00000023,-0.00000114,0.00000025,0.,-
 0.00000128,0.00000005,0.00000002,-0.00000096,0.00000057,-0.00000047,-0
 .00000231,-0.00000341,0.00000053,-0.00000103,-0.00000137,0.00000468,-0
 .00000408,0.00000133,0.00000129,-0.00001178,-0.00000755,-0.00000057,-0
 .00001111,-0.00000981,0.00000136,0.00000090,0.00000622,-0.00000281,0.0
 0000768,0.00000016,-0.00001315,0.00000640,-0.00000789,-0.00000039,-0.0
 0000036,-0.00000036,0.00000095,-0.00000046,0.00000009,-0.00000091,-0.0
 0000055,0.00000082,-0.00000006,-0.00000105,-0.00000003,0.00000011,-0.0
 0000065,-0.00000033,0.00000097,0.00000026,0.00000088,-0.00000023,0.000
 00088,0.00000044,0.00000015,0.00000073,-0.00000041,0.00000047,-0.00000
 091,0.00000053,-0.00000006,0.00067303,0.00051479,-0.00001689,-0.000154
 83,-0.00053749,-0.00078551,-0.00003327,0.00013551,0.00010892,-0.000756
 54,-0.00223619,-0.00227052,-0.11609790,-0.10060976,0.13197546\\-0.0000
 0040,0.00000702,0.00000163,-0.00000207,-0.00000555,0.,-0.00000054,0.00
 000774,0.00000018,0.00000225,-0.00000496,-0.00000063,-0.00000003,0.000
 00665,0.00000043,-0.00000023,0.00000069,-0.00000120,-0.00000107,-0.000
 00541,-0.00000395,0.00000072,-0.00000585,-0.00000115,-0.00000319,0.000
 00526,0.00000221,0.00000358,0.00000320,-0.00000206,0.00000034,-0.00000
 880,-0.00000193,0.00000029,0.00000852,-0.00000079,-0.00000475,-0.00000
 225,-0.00000084,0.00000436,-0.00000264,-0.00000170,-0.00000341,0.00000
 283,-0.00000024,0.00000339,0.00000505,0.00000099,-0.00000472,-0.000002
 48,-0.00000180,0.00000503,-0.00000248,-0.00000117,-0.00000039,0.000008
 41,0.00000011,-0.00000069,-0.00000887,-0.00000110,0.00000008,0.0000027
 3,0.00000207,0.00000099,0.00000209,-0.00000135,0.00000066,-0.00000252,
 -0.00000267,-0.00000109,0.00000251,-0.00000071,-0.00000061,0.00000179,
 -0.00000098,0.00000067,-0.00000135,-0.00000204,-0.00000029,0.00000063,
 -0.00000167,-0.00000089,-0.00000103,0.00000068,0.00000106,-0.00000090,
 -0.00000007,0.00000020,0.00000050,-0.00000218,-0.00000087,-0.00000130,
 -0.00000237,0.00000035,0.00000169,-0.00000137,-0.00000113,-0.00000241,
 -0.00000270,0.00000115,0.00000287,-0.00000178,-0.00000228,-0.00000534,
 0.00000093,0.00000276,-0.00000526,-0.00000017,-0.00000063,0.00000238,-
 0.00000034,0.00000165,0.00000058,0.00000107,-0.00000192,-0.00000179,-0
 .00000012,0.00000168,0.00000009,-0.00000055,0.00000034,0.00000181,0.00
 000068,-0.00000018,0.00000219,0.00000115,-0.00000181,-0.00000047,0.000
 00009,0.00000259,-0.00000179,0.00000012,-0.00000174,0.00000135,0.00000
 132,0.00000022,-0.00000015,0.00000015,-0.00000005,0.00000005,0.0000010
 4,-0.00000006,-0.00000318,0.00000112,0.00000004,-0.00000696,0.00000135
 ,0.00000008,-0.00000305,0.00000247,-0.00000003,0.00000162,0.00000062,-
 0.00000019,-0.00000045,0.00000053,-0.00000073,-0.00000056,0.00000114,0
 .00000052,0.00000276,-0.00000199,-0.00000046,0.00000216,-0.00000074,0.
 00000116,0.00000019,0.00000126,0.00000021,-0.00000003,0.00000098,-0.00
 000023,0.00000161,0.00000150,-0.00000002,-0.00000041,0.00000126,-0.000
 00022,-0.00000099,0.00000116,-0.00000012,0.00000014,0.00000143,-0.0000
 0010,-0.00000102,0.00000004,-0.00000032,-0.00000086,-0.00000047,-0.000
 00003,-0.00000044,0.00000106,0.00000004,-0.00000094,0.00000109,-0.0000
 0012,-0.00000038,0.00000079,0.00000015,0.00000014,0.00000128,0.0000003
 0,0.00000035,0.00000067,0.00000020,0.00000158,0.00000019,0.00000015,-0
 .00000031,0.00000210,0.00000037,0.00000017,0.00000137,0.00000018,0.000
 00142,0.00000067,0.00000002,0.00000019,0.00000106,0.00000018,0.0000001
 8,0.00000125,0.00000061,-0.00000024,0.00000129,0.,0.00000020,0.0000008
 2,0.00000034,0.00000052,0.00000068,-0.00000108,-0.00000072,0.00000110,
 0.00000095,0.00000049,-0.00000011,-0.00000126,0.00000048,-0.00000078,0
 .00000104,-0.00000073,0.,-0.00000030,0.00000057,-0.00000037,0.00000010
 ,0.00000011,-0.00000009,-0.00000048,-0.00000009,0.00000052,0.00000050,
 -0.00000071,-0.00000093,-0.00000117,0.00000121,-0.00000075,0.00000109,
 0.00000137,0.00000019,-0.00000063,-0.00000067,-0.00000220,-0.00000016,
 -0.00000064,-0.00000067,-0.00000048,-0.00000009,-0.00000178,-0.0000001
 2,0.00000033,-0.00000179,0.00000024,0.00000062,-0.00000136,0.00000027,
 -0.00000004,-0.00000174,-0.00000040,0.00000013,-0.00000215,-0.00000025
 ,0.00000062,-0.00000190,-0.00000006,0.00000036,-0.00000223,0.00000017,
 -0.00000006,-0.00000204,0.00000003,-0.00000064,-0.00000080,0.00000040,
 0.00000039,0.00000056,-0.00000018,0.00000009,-0.00000102,0.00000002,0.
 00000014,-0.00000028,-0.00000035,0.00000052,0.00000104,-0.00000008,-0.
 00000036,0.00000138,-0.00000006,-0.00000089,0.00000136,-0.00000015,-0.
 00000107,0.00000092,-0.00000008,-0.00000075,0.00000062,-0.00000016,-0.
 00000060,0.00000030,-0.00000021,-0.00000100,0.00000063,-0.00000023,-0.
 00000082,0.00000109,0.00000005,-0.00000028,0.00000111,0.00000026,0.000
 00022,0.00000127,0.00000020,0.00000066,0.00000106,0.00000018,0.0000007
 6,0.00000057,0.00000006,0.00000061,0.00000003,0.00000025,0.00000050,0.
 00000042,0.00000032,0.00000078,0.00000094,0.00000029,0.00000065,0.0000
 0139,0.,0.00000020,0.00000166,0.00000020,0.00000028,0.00000066,0.00000
 018,0.00000036,0.00000129,0.00000002,-0.00000003,0.00000106,0.00000012
 ,-0.00000024,0.00000050,-0.00000004,-0.00000027,0.00000056,-0.00000011
 ,-0.00000031,-0.00000022,-0.00000023,-0.00000028,-0.00000053,0.0000000
 5,-0.00000009,-0.00000004,0.00000006,0.00000032,0.00000036,-0.00000005
 ,0.00000023,0.\\\@


 IN SO FAR AS QUANTUM MECHANICS IS CORRECT, CHEMICAL 
 QUESTIONS ARE PROBLEMS IN APPLIED MATHEMATICS.

                    -- EYRING, WALTER, & KIMBALL, 1944
 Job cpu time:       9 days 21 hours 30 minutes 24.8 seconds.
 Elapsed time:       0 days  9 hours 55 minutes 45.5 seconds.
 File lengths (MBytes):  RWF=  89089 Int=      0 D2E=      0 Chk=    832 Scr=      1
 Normal termination of Gaussian 16 at Tue Feb 25 05:46:48 2025.
